/*--------------------------------*- C++ -*----------------------------------*\
| =========                 |                                                 |
| \\      /  F ield         | OpenFOAM: The Open Source CFD Toolbox           |
|  \\    /   O peration     | Version:  2112                                  |
|   \\  /    A nd           | Website:  www.openfoam.com                      |
|    \\/     M anipulation  |                                                 |
\*---------------------------------------------------------------------------*/
FoamFile
{
    version     2.0;
    format      ascii;
    arch        "LSB;label=32;scalar=64";
    class       volVectorField;
    location    "1";
    object      U;
}
// * * * * * * * * * * * * * * * * * * * * * * * * * * * * * * * * * * * * * //

dimensions      [0 1 -1 0 0 0 0];

internalField   nonuniform List<vector> 
256
(
(4.87048e-11 2.25128e-13 -1.30912e-14)
(4.82612e-11 2.28643e-13 -1.87683e-14)
(4.82434e-11 -3.47329e-13 1.44691e-14)
(4.8681e-11 -3.56487e-13 1.99831e-14)
(1.08887e-09 1.62565e-12 -6.29401e-14)
(1.08729e-09 1.66276e-12 -1.07806e-13)
(1.0872e-09 -2.05892e-12 1.11473e-13)
(1.08879e-09 -2.13144e-12 1.54196e-13)
(2.30087e-08 8.18174e-12 -3.8957e-13)
(2.30054e-08 8.26987e-12 -7.32307e-13)
(2.30049e-08 -8.82961e-12 6.24505e-13)
(2.30084e-08 -9.08858e-12 9.49017e-13)
(4.82666e-07 2.86461e-11 -1.96515e-12)
(4.82675e-07 3.03091e-11 -4.52914e-12)
(4.82672e-07 -2.8494e-11 2.50062e-12)
(4.82665e-07 -3.05632e-11 4.98307e-12)
(1.00856e-05 6.42341e-11 -7.00548e-12)
(1.00857e-05 5.46638e-11 -1.87378e-11)
(1.00857e-05 -6.21626e-11 7.37277e-12)
(1.00856e-05 -5.24439e-11 1.94323e-11)
(0.000210421 -2.08513e-11 1.93033e-11)
(0.000210422 9.22997e-11 -5.58468e-11)
(0.000210421 2.62869e-11 -1.91846e-11)
(0.000210422 -8.94006e-11 5.99054e-11)
(0.00438839 6.76699e-11 5.98017e-11)
(0.0043884 2.54851e-12 -6.45592e-11)
(0.00438839 -6.59704e-11 -4.97219e-11)
(0.0043884 -7.76101e-13 7.39109e-11)
(0.0915161 1.25109e-10 9.91662e-11)
(0.0915161 -4.48628e-11 -1.54403e-10)
(0.0915161 -1.27242e-10 -8.9588e-11)
(0.0915161 4.52902e-11 1.6266e-10)
(4.91377e-11 1.92046e-13 -4.18295e-14)
(4.87396e-11 1.94914e-13 -4.61006e-14)
(4.87241e-11 -3.09262e-13 4.42682e-14)
(4.91198e-11 -3.10046e-13 4.35991e-14)
(1.09414e-09 1.38687e-12 -2.80509e-13)
(1.09265e-09 1.40699e-12 -2.80489e-13)
(1.09259e-09 -1.81538e-12 2.90582e-13)
(1.09409e-09 -1.82223e-12 3.05362e-13)
(2.30563e-08 6.93148e-12 -1.72352e-12)
(2.30525e-08 7.00464e-12 -1.74495e-12)
(2.30523e-08 -7.66594e-12 1.71135e-12)
(2.3056e-08 -7.66982e-12 1.82982e-12)
(4.82989e-07 2.51566e-11 -8.55972e-12)
(4.82988e-07 2.426e-11 -8.44665e-12)
(4.82988e-07 -2.54258e-11 8.37105e-12)
(4.82985e-07 -2.42151e-11 8.70139e-12)
(1.00871e-05 5.44308e-11 -2.76219e-11)
(1.00871e-05 5.79362e-11 -3.03843e-11)
(1.00871e-05 -5.30583e-11 2.71568e-11)
(1.0087e-05 -5.5309e-11 3.0684e-11)
(0.000210425 7.46562e-11 -6.00099e-11)
(0.000210424 -1.48114e-11 -3.38352e-11)
(0.000210425 -7.05627e-11 6.0812e-11)
(0.000210424 1.97681e-11 3.20041e-11)
(0.0043884 2.90044e-11 7.62083e-11)
(0.00438839 2.36134e-11 -8.27711e-11)
(0.00438839 -2.56927e-11 -8.38062e-11)
(0.00438839 -2.06396e-11 8.42375e-11)
(0.0915161 -4.07985e-13 -7.09127e-11)
(0.0915161 7.06242e-11 -7.12745e-11)
(0.0915161 8.88146e-13 7.48159e-11)
(0.0915161 -7.03868e-11 7.38067e-11)
(4.9632e-11 1.36105e-13 -4.21199e-14)
(4.92917e-11 1.41288e-13 -4.03794e-14)
(4.92807e-11 -2.53052e-13 4.73606e-14)
(4.96203e-11 -2.5736e-13 4.60426e-14)
(1.10034e-09 1.00399e-12 -3.18633e-13)
(1.09897e-09 1.03523e-12 -2.9182e-13)
(1.09892e-09 -1.44196e-12 2.97904e-13)
(1.10029e-09 -1.47072e-12 2.67807e-13)
(2.31131e-08 5.1154e-12 -1.96911e-12)
(2.31086e-08 5.24541e-12 -1.75312e-12)
(2.31082e-08 -5.83685e-12 1.8208e-12)
(2.31129e-08 -5.97895e-12 1.58402e-12)
(4.83371e-07 1.90541e-11 -9.56487e-12)
(4.83364e-07 1.97019e-11 -8.03024e-12)
(4.83361e-07 -1.90698e-11 9.32648e-12)
(4.83371e-07 -1.98764e-11 7.68124e-12)
(1.00887e-05 4.51756e-11 -3.35258e-11)
(1.00887e-05 4.52565e-11 -2.08479e-11)
(1.00887e-05 -4.27371e-11 3.38487e-11)
(1.00887e-05 -4.38092e-11 2.05909e-11)
(0.000210427 1.741e-11 -6.04889e-11)
(0.000210428 7.24964e-11 -2.35795e-11)
(0.000210427 -1.46168e-11 6.10695e-11)
(0.000210428 -6.91682e-11 2.07763e-11)
(0.00438839 6.03248e-11 -1.66773e-10)
(0.00438839 -1.97874e-11 1.75479e-10)
(0.00438839 -5.73267e-11 1.58141e-10)
(0.00438839 2.35512e-11 -1.87866e-10)
(0.0915161 7.09661e-11 -1.14443e-10)
(0.0915161 -5.92745e-11 -3.62064e-11)
(0.0915161 -6.8873e-11 1.12563e-10)
(0.0915161 6.09029e-11 3.05092e-11)
(4.99326e-11 8.89162e-14 -1.91431e-14)
(4.9638e-11 1.01526e-13 -1.30727e-14)
(4.96225e-11 -2.13889e-13 2.77506e-14)
(4.99156e-11 -2.2606e-13 2.27119e-14)
(1.10413e-09 6.74462e-13 -1.74148e-13)
(1.10288e-09 7.74075e-13 -1.30652e-13)
(1.1028e-09 -1.15937e-12 1.38697e-13)
(1.10404e-09 -1.25359e-12 9.39646e-14)
(2.31478e-08 3.50698e-12 -1.09495e-12)
(2.31426e-08 4.1386e-12 -7.39369e-13)
(2.31421e-08 -4.32203e-12 8.73337e-13)
(2.31472e-08 -4.92413e-12 5.16296e-13)
(4.83603e-07 1.3469e-11 -5.31349e-12)
(4.83586e-07 1.71879e-11 -2.62251e-12)
(4.83583e-07 -1.35636e-11 4.87527e-12)
(4.836e-07 -1.71755e-11 2.24314e-12)
(1.00897e-05 3.55645e-11 -1.90945e-11)
(1.00896e-05 5.21761e-11 -2.02654e-12)
(1.00896e-05 -3.38882e-11 1.88376e-11)
(1.00897e-05 -5.04575e-11 2.31902e-12)
(0.000210429 2.47897e-11 -5.24259e-11)
(0.000210429 5.78564e-11 4.26817e-11)
(0.000210429 -2.39791e-11 4.92152e-11)
(0.000210429 -5.73593e-11 -4.31067e-11)
(0.00438838 -2.22226e-12 -1.24537e-10)
(0.00438838 1.78742e-11 1.03014e-10)
(0.00438838 4.42717e-12 1.0897e-10)
(0.00438838 -1.59408e-11 -1.18321e-10)
(0.0915161 4.29471e-14 -1.79751e-10)
(0.0915161 -6.96518e-12 1.03814e-10)
(0.0915161 2.60775e-12 1.68922e-10)
(0.0915161 9.78617e-12 -1.14315e-10)
(4.99918e-11 7.87016e-14 1.45277e-14)
(4.97004e-11 9.78416e-14 1.87926e-14)
(4.96784e-11 -2.10805e-13 -1.04972e-14)
(4.99685e-11 -2.29833e-13 -1.52374e-14)
(1.10484e-09 6.06195e-13 7.14707e-14)
(1.10358e-09 7.66819e-13 1.03904e-13)
(1.10344e-09 -1.12928e-12 -9.18713e-14)
(1.10471e-09 -1.28836e-12 -1.2883e-13)
(2.31535e-08 3.21196e-12 4.3363e-13)
(2.31481e-08 4.32252e-12 7.0308e-13)
(2.31473e-08 -4.08257e-12 -5.48598e-13)
(2.31527e-08 -5.18297e-12 -8.56125e-13)
(4.83631e-07 1.23876e-11 2.35091e-12)
(4.83615e-07 1.92252e-11 4.38816e-12)
(4.8361e-07 -1.24164e-11 -2.48205e-12)
(4.83629e-07 -1.92087e-11 -4.75663e-12)
(1.00897e-05 2.77206e-11 7.49859e-12)
(1.00897e-05 6.20394e-11 1.84515e-11)
(1.00897e-05 -2.63081e-11 -7.00699e-12)
(1.00897e-05 -6.06083e-11 -1.90681e-11)
(0.000210429 -2.21548e-11 -1.89542e-11)
(0.000210429 1.11713e-10 5.60211e-11)
(0.000210429 1.93304e-11 1.86681e-11)
(0.000210429 -1.1411e-10 -5.87972e-11)
(0.00438838 1.52882e-12 -6.03836e-11)
(0.00438838 9.08512e-12 6.25649e-11)
(0.00438838 -1.87303e-12 4.88798e-11)
(0.00438838 -9.48072e-12 -7.47013e-11)
(0.0915161 3.95344e-11 -9.94784e-11)
(0.0915161 -5.67235e-11 1.52769e-10)
(0.0915161 -3.62954e-11 8.87954e-11)
(0.0915161 5.97044e-11 -1.63717e-10)
(4.97751e-11 1.10469e-13 3.96199e-14)
(4.94408e-11 1.33539e-13 4.03331e-14)
(4.94142e-11 -2.44009e-13 -4.47201e-14)
(4.97471e-11 -2.6799e-13 -4.71574e-14)
(1.10205e-09 8.29401e-13 2.7342e-13)
(1.10065e-09 1.02714e-12 2.84161e-13)
(1.10049e-09 -1.35824e-12 -2.78901e-13)
(1.10188e-09 -1.56453e-12 -2.90813e-13)
(2.31269e-08 4.35121e-12 1.67576e-12)
(2.31218e-08 5.72535e-12 1.77763e-12)
(2.3121e-08 -5.20727e-12 -1.68174e-12)
(2.3126e-08 -6.63812e-12 -1.78489e-12)
(4.83442e-07 1.60856e-11 8.29225e-12)
(4.83432e-07 2.37614e-11 8.70539e-12)
(4.83429e-07 -1.59556e-11 -8.37179e-12)
(4.83439e-07 -2.39207e-11 -8.74254e-12)
(1.00889e-05 2.76712e-11 2.67542e-11)
(1.00889e-05 7.13056e-11 3.06258e-11)
(1.00889e-05 -2.60517e-11 -2.74996e-11)
(1.00889e-05 -7.04781e-11 -3.06157e-11)
(0.000210427 -5.7793e-13 5.90483e-11)
(0.000210427 7.47064e-11 3.38707e-11)
(0.000210427 -3.01369e-12 -6.12633e-11)
(0.000210427 -7.84345e-11 -3.28745e-11)
(0.00438839 -3.79844e-11 -8.06481e-11)
(0.00438838 6.38083e-11 8.46961e-11)
(0.00438839 3.5833e-11 8.04266e-11)
(0.00438838 -6.54888e-11 -8.26938e-11)
(0.0915161 -1.69946e-11 7.09391e-11)
(0.0915161 3.55756e-11 7.15858e-11)
(0.0915161 1.93967e-11 -7.45371e-11)
(0.0915161 -3.29369e-11 -7.40773e-11)
(4.92709e-11 1.66258e-13 4.06835e-14)
(4.88765e-11 1.88991e-13 4.03551e-14)
(4.8849e-11 -2.98778e-13 -5.13325e-14)
(4.92427e-11 -3.21383e-13 -5.07883e-14)
(1.09579e-09 1.2111e-12 3.10102e-13)
(1.09427e-09 1.40912e-12 2.95722e-13)
(1.09411e-09 -1.73442e-12 -3.17505e-13)
(1.09564e-09 -1.93071e-12 -2.93174e-13)
(2.30699e-08 6.18187e-12 1.92505e-12)
(2.30656e-08 7.44147e-12 1.78235e-12)
(2.30648e-08 -7.07991e-12 -1.8967e-12)
(2.30692e-08 -8.31321e-12 -1.67692e-12)
(4.83058e-07 2.16759e-11 9.17911e-12)
(4.83058e-07 2.99097e-11 8.17122e-12)
(4.83054e-07 -2.19785e-11 -9.34505e-12)
(4.83056e-07 -2.98868e-11 -7.90767e-12)
(1.00872e-05 4.65214e-11 3.30327e-11)
(1.00873e-05 7.13647e-11 2.11342e-11)
(1.00872e-05 -4.58998e-11 -3.42145e-11)
(1.00872e-05 -6.95506e-11 -2.09551e-11)
(0.000210424 -6.17732e-11 6.01398e-11)
(0.000210424 1.32171e-10 2.34052e-11)
(0.000210424 5.91455e-11 -6.0553e-11)
(0.000210424 -1.33826e-10 -2.18845e-11)
(0.00438839 9.14334e-12 1.67355e-10)
(0.00438839 3.16664e-11 -1.73485e-10)
(0.00438839 -1.01013e-11 -1.57299e-10)
(0.00438839 -3.36997e-11 1.88656e-10)
(0.0915161 9.4951e-11 1.14755e-10)
(0.0915161 -4.26314e-11 3.78404e-11)
(0.0915161 -9.31148e-11 -1.11771e-10)
(0.0915161 4.35576e-11 -2.94522e-11)
(4.87524e-11 2.11258e-13 2.13526e-14)
(4.83171e-11 2.28621e-13 1.88403e-14)
(4.82892e-11 -3.45398e-13 -2.72987e-14)
(4.87222e-11 -3.60322e-13 -1.91536e-14)
(1.08953e-09 1.52603e-12 1.81237e-13)
(1.08793e-09 1.67089e-12 1.26979e-13)
(1.0878e-09 -2.04076e-12 -1.50378e-13)
(1.08939e-09 -2.16563e-12 -1.08514e-13)
(2.30143e-08 7.636e-12 1.14271e-12)
(2.30107e-08 8.64217e-12 7.06687e-13)
(2.30102e-08 -8.55079e-12 -9.02947e-13)
(2.30136e-08 -9.45828e-12 -5.61219e-13)
(4.82696e-07 2.7607e-11 5.58096e-12)
(4.82703e-07 3.09287e-11 2.36377e-12)
(4.82702e-07 -2.79252e-11 -4.87453e-12)
(4.82693e-07 -3.10608e-11 -2.20199e-12)
(1.00857e-05 4.65503e-11 1.99621e-11)
(1.00857e-05 7.69495e-11 1.78503e-12)
(1.00858e-05 -4.5023e-11 -1.84947e-11)
(1.00857e-05 -7.56567e-11 -2.3873e-12)
(0.000210421 4.96497e-11 5.33875e-11)
(0.000210421 2.70351e-12 -4.27171e-11)
(0.000210422 -4.91151e-11 -4.87639e-11)
(0.000210421 -9.13803e-13 4.3977e-11)
(0.0043884 -6.56244e-12 1.28977e-10)
(0.00438839 7.03978e-11 -1.04939e-10)
(0.0043884 5.98031e-12 -1.0559e-10)
(0.00438839 -6.95003e-11 1.16777e-10)
(0.0915161 -1.75419e-11 1.79724e-10)
(0.0915161 1.13279e-10 -1.04125e-10)
(0.0915161 1.78026e-11 -1.69201e-10)
(0.0915161 -1.13187e-10 1.14586e-10)
)
;

boundaryField
{
    movingWall
    {
        type            fixedValue;
        value           uniform (1 0 0);
    }
    CPLReceiveMD
    {
        type            fixedValue;
        value           uniform (0 0 0);
    }
    streamwiseIn
    {
        type            cyclic;
    }
    streamwiseOut
    {
        type            cyclic;
    }
    front
    {
        type            cyclic;
    }
    back
    {
        type            cyclic;
    }
    procBoundary0to1
    {
        type            processor;
        value           nonuniform List<vector> 
64
(
(4.86943e-11 2.25097e-13 -1.30276e-14)
(1.08887e-09 1.62563e-12 -6.2967e-14)
(2.30087e-08 8.18176e-12 -3.89611e-13)
(4.82666e-07 2.86461e-11 -1.96517e-12)
(1.00856e-05 6.42341e-11 -7.00549e-12)
(0.000210421 -2.08513e-11 1.93033e-11)
(0.00438839 6.767e-11 5.98017e-11)
(0.0915161 1.25109e-10 9.91664e-11)
(4.91333e-11 1.92041e-13 -4.19049e-14)
(1.09414e-09 1.38687e-12 -2.80459e-13)
(2.30563e-08 6.9315e-12 -1.72348e-12)
(4.82989e-07 2.51566e-11 -8.5597e-12)
(1.00871e-05 5.44307e-11 -2.76219e-11)
(0.000210425 7.46562e-11 -6.00098e-11)
(0.0043884 2.90044e-11 7.62082e-11)
(0.0915161 -4.0795e-13 -7.0913e-11)
(4.96314e-11 1.36123e-13 -4.21635e-14)
(1.10034e-09 1.00401e-12 -3.18608e-13)
(2.31131e-08 5.11541e-12 -1.96909e-12)
(4.83371e-07 1.90541e-11 -9.56486e-12)
(1.00887e-05 4.51756e-11 -3.35258e-11)
(0.000210427 1.741e-11 -6.04889e-11)
(0.00438839 6.03247e-11 -1.66773e-10)
(0.0915161 7.0966e-11 -1.14443e-10)
(4.99308e-11 8.89303e-14 -1.9141e-14)
(1.10414e-09 6.74477e-13 -1.74142e-13)
(2.31478e-08 3.50699e-12 -1.09495e-12)
(4.83603e-07 1.3469e-11 -5.31348e-12)
(1.00897e-05 3.55645e-11 -1.90945e-11)
(0.000210429 2.47897e-11 -5.24259e-11)
(0.00438838 -2.22232e-12 -1.24537e-10)
(0.0915161 4.28983e-14 -1.79751e-10)
(4.99899e-11 7.87224e-14 1.45129e-14)
(1.10484e-09 6.06217e-13 7.14718e-14)
(2.31535e-08 3.21196e-12 4.33634e-13)
(4.83631e-07 1.23876e-11 2.35091e-12)
(1.00897e-05 2.77206e-11 7.49859e-12)
(0.000210429 -2.21548e-11 -1.89542e-11)
(0.00438838 1.52881e-12 -6.03836e-11)
(0.0915161 3.95344e-11 -9.94783e-11)
(4.97734e-11 1.10495e-13 3.95925e-14)
(1.10205e-09 8.29429e-13 2.73416e-13)
(2.31269e-08 4.35122e-12 1.67577e-12)
(4.83442e-07 1.60856e-11 8.29225e-12)
(1.00889e-05 2.76712e-11 2.67542e-11)
(0.000210427 -5.77938e-13 5.90483e-11)
(0.00438839 -3.79844e-11 -8.06481e-11)
(0.0915161 -1.69946e-11 7.0939e-11)
(4.92703e-11 1.66298e-13 4.06782e-14)
(1.09579e-09 1.21115e-12 3.10103e-13)
(2.30699e-08 6.18188e-12 1.92507e-12)
(4.83058e-07 2.16759e-11 9.17912e-12)
(1.00872e-05 4.65214e-11 3.30327e-11)
(0.000210424 -6.17732e-11 6.01398e-11)
(0.00438839 9.14331e-12 1.67355e-10)
(0.0915161 9.4951e-11 1.14755e-10)
(4.87478e-11 2.11296e-13 2.14534e-14)
(1.08953e-09 1.52608e-12 1.81185e-13)
(2.30143e-08 7.63601e-12 1.14266e-12)
(4.82696e-07 2.7607e-11 5.58093e-12)
(1.00857e-05 4.65503e-11 1.99621e-11)
(0.000210421 4.96497e-11 5.33875e-11)
(0.0043884 -6.56249e-12 1.28977e-10)
(0.0915161 -1.75419e-11 1.79724e-10)
)
;
    }
    procBoundary0to1throughstreamwiseIn
    {
        type            processorCyclic;
        value           nonuniform List<vector> 
64
(
(4.86854e-11 -3.53341e-13 2.01295e-14)
(1.08879e-09 -2.12883e-12 1.54144e-13)
(2.30084e-08 -9.08876e-12 9.48959e-13)
(4.82665e-07 -3.0563e-11 4.98304e-12)
(1.00856e-05 -5.24438e-11 1.94323e-11)
(0.000210422 -8.94006e-11 5.99053e-11)
(0.0043884 -7.7607e-13 7.39109e-11)
(0.0915161 4.52902e-11 1.6266e-10)
(4.91257e-11 -3.0843e-13 4.86038e-14)
(1.09408e-09 -1.82106e-12 3.05426e-13)
(2.3056e-08 -7.67012e-12 1.83006e-12)
(4.82985e-07 -2.4215e-11 8.70145e-12)
(1.0087e-05 -5.5309e-11 3.0684e-11)
(0.000210424 1.97681e-11 3.20041e-11)
(0.00438839 -2.06396e-11 8.42375e-11)
(0.0915161 -7.03868e-11 7.38067e-11)
(4.96223e-11 -2.56832e-13 4.73427e-14)
(1.10029e-09 -1.47047e-12 2.67289e-13)
(2.31129e-08 -5.97915e-12 1.58425e-12)
(4.83371e-07 -1.98764e-11 7.68129e-12)
(1.00887e-05 -4.38092e-11 2.0591e-11)
(0.000210428 -6.91682e-11 2.07763e-11)
(0.00438839 2.35513e-11 -1.87866e-10)
(0.0915161 6.09029e-11 3.05094e-11)
(4.99172e-11 -2.25524e-13 2.20017e-14)
(1.10404e-09 -1.25319e-12 9.36167e-14)
(2.31472e-08 -4.92422e-12 5.16398e-13)
(4.836e-07 -1.71755e-11 2.24317e-12)
(1.00897e-05 -5.04575e-11 2.31902e-12)
(0.000210429 -5.73593e-11 -4.31067e-11)
(0.00438838 -1.59408e-11 -1.18321e-10)
(0.0915161 9.7862e-12 -1.14315e-10)
(4.99703e-11 -2.29333e-13 -1.52371e-14)
(1.10471e-09 -1.28795e-12 -1.28813e-13)
(2.31527e-08 -5.18303e-12 -8.56115e-13)
(4.83629e-07 -1.92087e-11 -4.75663e-12)
(1.00897e-05 -6.06083e-11 -1.90681e-11)
(0.000210429 -1.1411e-10 -5.87972e-11)
(0.00438838 -9.48071e-12 -7.47013e-11)
(0.0915161 5.97044e-11 -1.63717e-10)
(4.97487e-11 -2.67454e-13 -4.64742e-14)
(1.10188e-09 -1.56413e-12 -2.90431e-13)
(2.3126e-08 -6.63821e-12 -1.78497e-12)
(4.83439e-07 -2.39207e-11 -8.74256e-12)
(1.00889e-05 -7.04781e-11 -3.06157e-11)
(0.000210427 -7.84345e-11 -3.28745e-11)
(0.00438838 -6.54888e-11 -8.26938e-11)
(0.0915161 -3.29368e-11 -7.40773e-11)
(4.92449e-11 -3.20845e-13 -5.22351e-14)
(1.09564e-09 -1.93045e-12 -2.9262e-13)
(2.30692e-08 -8.31342e-12 -1.67709e-12)
(4.83056e-07 -2.98868e-11 -7.9077e-12)
(1.00872e-05 -6.95506e-11 -2.09551e-11)
(0.000210424 -1.33826e-10 -2.18845e-11)
(0.00438839 -3.36997e-11 1.88656e-10)
(0.0915161 4.35577e-11 -2.94522e-11)
(4.87281e-11 -3.58636e-13 -2.41313e-14)
(1.08939e-09 -2.16438e-12 -1.08612e-13)
(2.30136e-08 -9.45858e-12 -5.61483e-13)
(4.82693e-07 -3.10607e-11 -2.20206e-12)
(1.00857e-05 -7.56567e-11 -2.38732e-12)
(0.000210421 -9.13799e-13 4.3977e-11)
(0.00438839 -6.95002e-11 1.16777e-10)
(0.0915161 -1.13187e-10 1.14586e-10)
)
;
    }
}


// ************************************************************************* //
