/*--------------------------------*- C++ -*----------------------------------*\
| =========                 |                                                 |
| \\      /  F ield         | OpenFOAM: The Open Source CFD Toolbox           |
|  \\    /   O peration     | Version:  2112                                  |
|   \\  /    A nd           | Website:  www.openfoam.com                      |
|    \\/     M anipulation  |                                                 |
\*---------------------------------------------------------------------------*/
FoamFile
{
    version     2.0;
    format      ascii;
    arch        "LSB;label=32;scalar=64";
    class       surfaceScalarField;
    location    "2";
    object      phi;
}
// * * * * * * * * * * * * * * * * * * * * * * * * * * * * * * * * * * * * * //

dimensions      [0 3 -1 0 0 0 0];

oriented        oriented;

internalField   nonuniform List<scalar> 
640
(
2.2711e-09
8.92615e-12
-9.08033e-13
2.25978e-09
1.20622e-11
-8.45508e-13
2.26774e-09
-8.92795e-12
7.06384e-13
-1.21486e-11
6.82419e-13
4.94543e-08
5.46449e-11
-9.65301e-12
4.9403e-08
7.20706e-11
-9.03522e-12
4.94383e-08
-4.64857e-11
1.2534e-12
-6.56055e-11
9.90204e-13
1.01086e-06
2.39272e-10
-5.2304e-11
1.01063e-06
3.45676e-10
-4.66844e-11
1.01075e-06
-2.03031e-10
2.03256e-11
-3.21284e-10
1.71946e-11
2.03052e-05
6.64088e-10
-2.2729e-10
2.03044e-05
1.28631e-09
-1.66859e-10
2.03046e-05
-6.36703e-10
1.88636e-10
-1.30832e-09
1.40727e-10
0.000398412
1.10537e-09
-9.78174e-10
0.00039841
3.44102e-09
-6.52261e-10
0.00039841
-1.27554e-09
1.0352e-09
-3.7278e-09
7.36414e-10
0.00753708
2.15627e-09
-3.37922e-09
0.00753709
1.94418e-09
2.00682e-10
0.00753708
-2.40243e-09
3.37635e-09
-1.78835e-09
-2.4138e-10
0.133714
3.58394e-09
-8.84603e-09
0.133714
-8.3238e-09
-1.66931e-09
0.133714
-3.66887e-09
9.20868e-09
9.01095e-09
1.32105e-09
2.0767
-4.95897e-09
2.0767
1.04792e-08
2.0767
4.74751e-09
-1.02319e-08
2.28112e-09
7.64972e-12
-1.37073e-12
2.27066e-09
1.0872e-11
-1.2503e-12
2.27782e-09
-7.47831e-12
1.02492e-12
-1.06472e-11
8.96479e-13
4.95738e-08
4.2606e-11
-1.28835e-11
4.9525e-08
6.2508e-11
-1.19255e-11
4.95568e-08
-4.1021e-11
3.0946e-12
-6.05979e-11
2.11556e-12
1.01198e-06
1.7422e-10
-6.67158e-11
1.01175e-06
3.0425e-10
-5.78386e-11
1.01187e-06
-1.75158e-10
3.72032e-11
-3.02776e-10
2.87412e-11
2.03137e-05
4.50189e-10
-2.84113e-10
2.03128e-05
1.27081e-09
-2.13196e-10
2.0313e-05
-5.09702e-10
3.01096e-10
-1.31616e-09
2.36791e-10
0.000398459
6.40014e-10
-1.18833e-09
0.000398457
3.28286e-09
-5.85391e-10
0.000398457
-8.54031e-10
1.39816e-09
-3.50361e-09
8.46708e-10
0.00753725
1.96027e-09
-3.93585e-09
0.00753726
1.31875e-09
-1.37165e-09
0.00753726
-2.05217e-09
3.75683e-09
-1.43292e-09
1.2783e-09
0.133714
5.31282e-09
-3.55397e-09
0.133714
-6.72907e-09
8.07384e-09
0.133714
-4.91797e-09
2.95038e-09
6.95701e-09
-8.28473e-09
2.0767
4.27328e-09
2.0767
1.48938e-09
2.0767
-2.86425e-09
-2.23977e-09
2.29335e-09
5.50355e-12
-1.04676e-12
2.28412e-09
8.87733e-12
-8.92792e-13
2.28997e-09
-5.60865e-12
7.81271e-13
-8.932e-12
6.13731e-13
4.97194e-08
2.78763e-11
-8.99419e-12
4.96749e-08
4.94534e-11
-7.98135e-12
4.97012e-08
-3.19935e-11
3.146e-12
-5.33911e-11
2.0957e-12
1.01334e-06
1.09759e-10
-4.44583e-11
1.01311e-06
2.57613e-10
-3.6896e-11
1.01321e-06
-1.31423e-10
3.29205e-11
-2.79473e-10
2.52305e-11
2.03239e-05
2.7937e-10
-1.7833e-10
2.03229e-05
1.18835e-09
-1.27589e-10
2.03231e-05
-3.39991e-10
2.41181e-10
-1.25614e-09
1.90174e-10
0.000398516
4.71392e-10
-7.1047e-10
0.000398513
3.75064e-09
-4.06553e-10
0.000398514
-5.60155e-10
9.86903e-10
-3.87816e-09
6.89198e-10
0.00753746
2.00883e-09
-1.69154e-09
0.00753746
2.54894e-09
-4.79995e-10
0.00753747
-2.03432e-09
1.55694e-09
-2.69181e-09
2.94176e-10
0.133714
4.75816e-09
4.49791e-09
0.133714
-7.4617e-09
-1.30434e-09
0.133715
-4.64734e-09
-5.15904e-09
7.52649e-09
8.07054e-10
2.0767
3.3164e-08
2.0767
-1.12695e-08
2.0767
-3.30133e-08
1.1953e-08
2.30121e-09
3.75006e-12
7.42988e-15
2.29283e-09
7.4029e-12
7.71024e-14
2.29768e-09
-4.29212e-12
2.19713e-13
-7.9076e-12
1.58997e-13
4.98118e-08
1.69855e-11
-2.03302e-13
4.97703e-08
4.06753e-11
1.65219e-13
4.97924e-08
-2.4375e-11
1.14088e-12
-4.78292e-11
6.75265e-13
1.01418e-06
6.49214e-11
1.3542e-12
1.01395e-06
2.29096e-10
3.3467e-12
1.01405e-06
-9.3276e-11
7.86674e-12
-2.56143e-10
5.11785e-12
2.033e-05
1.95422e-10
2.77279e-11
2.03289e-05
1.17811e-09
3.24168e-11
2.03292e-05
-2.26671e-10
4.14556e-11
-1.20949e-09
3.10541e-11
0.000398548
6.98215e-10
1.76412e-10
0.000398545
3.69327e-09
1.28448e-10
0.000398546
-6.31069e-10
2.20415e-11
-3.635e-09
4.41615e-11
0.00753758
3.94121e-09
1.3082e-09
0.00753758
1.4212e-09
3.4096e-10
0.00753758
-3.91532e-09
-1.39479e-09
-1.37085e-09
-5.25617e-10
0.133715
8.91884e-09
9.54247e-09
0.133715
-9.07264e-09
-3.26286e-09
0.133715
-9.12906e-09
-9.88074e-09
8.91843e-09
2.88342e-09
2.0767
2.35493e-08
2.0767
-9.17457e-09
2.0767
-2.33227e-08
9.41766e-09
2.30255e-09
3.63129e-12
1.07868e-12
2.29418e-09
7.40489e-12
1.02877e-12
2.2989e-09
-4.09699e-12
-4.21714e-13
-7.83998e-12
-3.91377e-13
4.98269e-08
1.67159e-11
8.75597e-12
4.97854e-08
4.07504e-11
8.33507e-12
4.98074e-08
-2.33829e-11
-1.56829e-12
-4.74229e-11
-1.25839e-12
1.01431e-06
6.94662e-11
4.65628e-11
1.01408e-06
2.33539e-10
4.20671e-11
1.01418e-06
-9.09881e-11
-2.23625e-11
-2.54889e-10
-1.8929e-11
2.03307e-05
2.69906e-10
2.19345e-10
2.03296e-05
1.22357e-09
1.72014e-10
2.033e-05
-2.52175e-10
-1.86535e-10
-1.20973e-09
-1.46602e-10
0.00039855
1.20955e-09
9.78767e-10
0.000398547
3.71739e-09
5.82191e-10
0.000398549
-9.71253e-10
-9.88709e-10
-3.49888e-09
-6.26388e-10
0.00753758
5.20452e-09
3.74736e-09
0.00753758
1.06539e-09
4.8995e-11
0.00753759
-5.10124e-09
-3.74739e-09
-9.01166e-10
-1.30833e-10
0.133715
9.67727e-09
7.34441e-09
0.133715
-9.3274e-09
-3.9513e-09
0.133715
-1.00185e-08
-7.4716e-09
9.0714e-09
4.22541e-09
2.0767
1.52239e-08
2.0767
-2.15915e-08
2.0767
-1.49647e-08
2.12048e-08
2.29659e-09
5.28286e-12
1.40427e-12
2.28733e-09
8.9817e-12
1.28756e-12
2.29296e-09
-5.06177e-12
-1.00725e-12
-8.78783e-12
-8.88486e-13
4.97563e-08
2.74286e-11
1.30124e-11
4.97114e-08
5.0084e-11
1.20886e-11
4.97376e-08
-2.9592e-11
-3.17991e-12
-5.27794e-11
-2.33359e-12
1.01365e-06
1.21881e-10
6.68647e-11
1.01342e-06
2.68811e-10
5.84926e-11
1.01353e-06
-1.27384e-10
-3.84186e-11
-2.7765e-10
-2.9967e-11
2.03257e-05
4.66907e-10
2.80044e-10
2.03247e-05
1.25272e-09
2.18368e-10
2.03251e-05
-4.10139e-10
-3.07715e-10
-1.21538e-09
-2.40875e-10
0.000398522
1.61765e-09
1.19544e-09
0.00039852
3.50202e-09
6.41444e-10
0.000398521
-1.32137e-09
-1.47063e-09
-3.25269e-09
-8.71874e-10
0.00753748
6.02083e-09
3.51553e-09
0.00753748
-5.37544e-10
1.16955e-09
0.00753749
-5.88859e-09
-3.5264e-09
5.99021e-10
-8.88632e-10
0.133715
1.16186e-08
4.95083e-09
0.133715
-1.27243e-08
-2.27666e-09
0.133715
-1.17789e-08
-5.21791e-09
1.24021e-08
3.36685e-09
2.0767
-1.31515e-08
2.0767
8.49529e-09
2.0767
1.39097e-08
-9.86362e-09
2.28427e-09
7.53478e-12
8.19685e-13
2.27376e-09
1.10748e-11
6.97609e-13
2.28072e-09
-6.9309e-12
-1.05017e-12
-1.04947e-11
-9.11857e-13
4.96103e-08
4.29231e-11
9.66328e-12
4.95611e-08
6.3616e-11
8.68329e-12
4.9593e-08
-3.91554e-11
-2.84039e-12
-6.03832e-11
-1.72648e-12
1.01229e-06
1.91641e-10
4.85924e-11
1.01206e-06
3.1544e-10
4.13122e-11
1.01219e-06
-1.76262e-10
-3.09955e-11
-3.03205e-10
-2.24521e-11
2.03157e-05
6.35419e-10
1.87166e-10
2.03148e-05
1.31588e-09
1.29902e-10
2.03151e-05
-5.81902e-10
-2.5105e-10
-1.26968e-09
-1.88247e-10
0.000398468
1.80439e-09
6.69642e-10
0.000398466
3.44432e-09
3.50052e-10
0.000398467
-1.70412e-09
-1.00236e-09
-3.30043e-09
-6.67497e-10
0.00753729
5.36612e-09
2.11951e-09
0.00753729
2.78795e-10
7.77283e-10
0.00753729
-5.42754e-09
-1.88711e-09
-1.79705e-10
-5.3315e-10
0.133714
8.63894e-09
-6.00442e-09
0.133714
-1.03558e-08
-4.30414e-09
0.133714
-8.87078e-09
6.51232e-09
1.04467e-08
4.79784e-09
2.0767
-2.31736e-08
2.0767
3.03966e-10
2.0767
2.28225e-08
-7.038e-10
2.27237e-09
8.84519e-12
2.26095e-09
1.22234e-11
2.2689e-09
-8.74112e-12
-1.21117e-11
4.94694e-08
5.37334e-11
4.94173e-08
7.33299e-11
4.94531e-08
-4.63451e-11
-6.51262e-11
1.01099e-06
2.36131e-10
1.01076e-06
3.53004e-10
1.01089e-06
-2.0672e-10
-3.15144e-10
2.03061e-05
7.16286e-10
2.03053e-05
1.35928e-09
2.03056e-05
-7.06789e-10
-1.30362e-09
0.000398416
1.44774e-09
0.000398415
3.0772e-09
0.000398415
-1.65319e-09
-3.13575e-09
0.0075371
4.11215e-09
0.00753711
-7.23849e-10
0.00753711
-3.93278e-09
4.34155e-10
0.133714
8.06748e-09
0.133714
-1.0636e-08
0.133714
-7.52388e-09
1.02768e-08
2.0767
2.0767
2.0767
)
;

boundaryField
{
    movingWall
    {
        type            calculated;
        value           uniform 0;
    }
    CPLReceiveMD
    {
        type            calculated;
        value           uniform 0;
    }
    streamwiseIn
    {
        type            cyclic;
        value           nonuniform List<scalar> 0();
    }
    streamwiseOut
    {
        type            cyclic;
        value           nonuniform List<scalar> 0();
    }
    front
    {
        type            cyclic;
        value           nonuniform List<scalar> 
32
(
1.54795e-14
2.89972e-13
7.9147e-14
-2.46534e-11
-1.37008e-10
-1.63214e-09
-7.37899e-09
-3.44763e-08
-8.48294e-14
-3.34959e-13
-4.00589e-12
-4.49572e-11
-5.95233e-11
-7.77885e-10
8.30459e-09
2.09352e-08
-2.51823e-13
-1.03499e-12
-6.52794e-12
-2.69566e-11
1.77119e-11
1.85735e-09
8.50978e-09
3.21988e-08
-1.4535e-13
-5.55125e-13
-4.88393e-12
-2.35163e-11
-1.42265e-10
8.75563e-10
-8.72847e-09
-1.92242e-08
)
;
    }
    back
    {
        type            cyclic;
        value           nonuniform List<scalar> 
32
(
-1.54795e-14
-2.89972e-13
-7.9147e-14
2.46534e-11
1.37008e-10
1.63214e-09
7.37899e-09
3.44763e-08
8.48294e-14
3.34959e-13
4.00589e-12
4.49572e-11
5.95233e-11
7.77885e-10
-8.30459e-09
-2.09352e-08
2.51823e-13
1.03499e-12
6.52794e-12
2.69566e-11
-1.77119e-11
-1.85735e-09
-8.50978e-09
-3.21988e-08
1.4535e-13
5.55125e-13
4.88393e-12
2.35163e-11
1.42265e-10
-8.75563e-10
8.72847e-09
1.92242e-08
)
;
    }
    procBoundary0to1
    {
        type            processor;
        value           nonuniform List<scalar> 
64
(
2.27912e-09
4.94901e-08
1.01099e-06
2.03055e-05
0.000398411
0.00753708
0.133714
2.0767
2.28828e-09
4.96056e-08
1.0121e-06
2.03139e-05
0.000398459
0.00753725
0.133714
2.0767
2.29919e-09
4.97457e-08
1.01344e-06
2.03242e-05
0.000398517
0.00753747
0.133714
2.0767
2.30602e-09
4.98338e-08
1.01428e-06
2.03303e-05
0.000398549
0.00753758
0.133715
2.0767
2.30726e-09
4.98489e-08
1.01441e-06
2.03311e-05
0.000398552
0.00753758
0.133715
2.0767
2.30222e-09
4.97827e-08
1.01376e-06
2.03261e-05
0.000398524
0.00753748
0.133715
2.0767
2.29123e-09
4.96423e-08
1.01242e-06
2.0316e-05
0.000398468
0.00753729
0.133714
2.0767
2.28028e-09
4.9505e-08
1.01112e-06
2.03064e-05
0.000398416
0.0075371
0.133714
2.0767
)
;
    }
    procBoundary0to1throughstreamwiseIn
    {
        type            processorCyclic;
        value           nonuniform List<scalar> 
64
(
-2.2792e-09
-4.94901e-08
-1.01099e-06
-2.03055e-05
-0.000398411
-0.00753708
-0.133714
-2.0767
-2.28832e-09
-4.96055e-08
-1.0121e-06
-2.03139e-05
-0.000398459
-0.00753725
-0.133714
-2.0767
-2.29919e-09
-4.97457e-08
-1.01344e-06
-2.03242e-05
-0.000398517
-0.00753747
-0.133714
-2.0767
-2.30604e-09
-4.98338e-08
-1.01428e-06
-2.03303e-05
-0.000398549
-0.00753758
-0.133715
-2.0767
-2.30729e-09
-4.98489e-08
-1.01441e-06
-2.03311e-05
-0.000398552
-0.00753758
-0.133715
-2.0767
-2.30222e-09
-4.97827e-08
-1.01376e-06
-2.03261e-05
-0.000398524
-0.00753748
-0.133715
-2.0767
-2.29121e-09
-4.96423e-08
-1.01242e-06
-2.0316e-05
-0.000398468
-0.00753729
-0.133714
-2.0767
-2.28027e-09
-4.95049e-08
-1.01112e-06
-2.03064e-05
-0.000398416
-0.0075371
-0.133714
-2.0767
)
;
    }
}


// ************************************************************************* //
