/*--------------------------------*- C++ -*----------------------------------*\
| =========                 |                                                 |
| \\      /  F ield         | OpenFOAM: The Open Source CFD Toolbox           |
|  \\    /   O peration     | Version:  2112                                  |
|   \\  /    A nd           | Website:  www.openfoam.com                      |
|    \\/     M anipulation  |                                                 |
\*---------------------------------------------------------------------------*/
FoamFile
{
    version     2.0;
    format      ascii;
    arch        "LSB;label=32;scalar=64";
    class       surfaceScalarField;
    location    "2";
    object      phi_0;
}
// * * * * * * * * * * * * * * * * * * * * * * * * * * * * * * * * * * * * * //

dimensions      [0 3 -1 0 0 0 0];

oriented        oriented;

internalField   nonuniform List<scalar> 
640
(
5.76957e-10
4.32791e-12
-3.45268e-13
5.72881e-10
4.43312e-12
-3.86687e-13
5.76769e-10
-4.35601e-12
3.76467e-13
-4.5506e-12
4.21562e-13
1.29494e-08
2.2058e-11
-2.2261e-12
1.29341e-08
2.23777e-11
-2.44118e-12
1.29486e-08
-2.14573e-11
2.43325e-12
-2.22637e-11
2.77283e-12
2.73813e-07
8.16746e-11
-1.30267e-11
2.73767e-07
8.38251e-11
-1.53956e-11
2.73809e-07
-7.8186e-11
1.41052e-11
-8.1557e-11
1.69975e-11
5.74439e-06
1.99598e-10
-6.49048e-11
5.74434e-06
1.92726e-10
-7.6556e-11
5.74438e-06
-1.91549e-10
6.69808e-11
-1.85189e-10
8.03461e-11
0.000120032
1.54379e-10
-1.91898e-10
0.000120032
2.91162e-10
-3.32162e-10
0.000120032
-1.46163e-10
1.89805e-10
-2.8912e-10
3.3457e-10
0.00250429
-6.07037e-11
-3.66814e-10
0.00250429
3.0892e-10
-3.4272e-10
0.00250428
4.71262e-11
3.6068e-10
-3.2536e-10
3.37563e-10
0.0522275
5.88294e-10
2.14352e-09
0.0522275
-2.14849e-10
-2.5948e-09
0.0522275
-5.70398e-10
-2.15873e-09
2.35895e-10
2.61182e-09
1.08916
-7.97684e-10
1.08916
-4.6645e-10
1.08916
8.06501e-10
4.57669e-10
5.82393e-10
3.73449e-12
-5.27632e-13
5.78711e-10
3.81506e-12
-5.20542e-13
5.82266e-10
-3.79205e-12
6.12757e-13
-3.83735e-12
5.8584e-13
1.30127e-08
1.89017e-11
-3.81432e-12
1.29986e-08
1.90682e-11
-3.64768e-12
1.30123e-08
-1.84782e-11
3.50814e-12
-1.84727e-11
3.37854e-12
2.74377e-07
7.1043e-11
-2.30486e-11
2.74332e-07
6.99987e-11
-2.1677e-11
2.74374e-07
-6.7908e-11
2.11854e-11
-6.59541e-11
2.00773e-11
5.74818e-06
1.77185e-10
-1.10586e-10
5.7481e-06
1.76231e-10
-1.01527e-10
5.74816e-06
-1.69398e-10
1.06863e-10
-1.64838e-10
9.91244e-11
0.000120049
2.77707e-10
-3.80158e-10
0.000120049
1.47261e-10
-2.85559e-10
0.000120049
-2.73491e-10
3.82662e-10
-1.39028e-10
2.90104e-10
0.00250432
2.61449e-10
-6.9087e-10
0.00250432
-1.15898e-10
-4.87644e-10
0.00250432
-2.77687e-10
7.20177e-10
1.01519e-10
4.90114e-10
0.0522275
3.50814e-12
-1.48012e-09
0.0522275
3.29376e-10
1.87986e-09
0.0522275
1.64631e-11
1.4315e-09
-3.1098e-10
-1.89843e-09
1.08916
-3.28266e-10
1.08916
-1.42631e-09
1.08916
3.6231e-10
1.43068e-09
5.88646e-10
2.86066e-12
-3.92766e-13
5.85522e-10
2.94323e-12
-3.40242e-13
5.88543e-10
-2.88157e-12
4.72678e-13
-2.95125e-12
4.23838e-13
1.30873e-08
1.41995e-11
-3.18482e-12
1.30748e-08
1.44943e-11
-2.73336e-12
1.30867e-08
-1.38608e-11
2.54686e-12
-1.41644e-11
2.08973e-12
2.75048e-07
5.38717e-11
-1.94578e-11
2.75002e-07
5.49306e-11
-1.58361e-11
2.75045e-07
-5.12992e-11
1.57106e-11
-5.27995e-11
1.20986e-11
5.75269e-06
1.40193e-10
-9.18666e-11
5.75257e-06
1.43965e-10
-6.54427e-11
5.75267e-06
-1.32102e-10
8.42874e-11
-1.38514e-10
5.80559e-11
0.000120069
1.64144e-10
-3.13393e-10
0.000120068
2.45709e-10
-1.47705e-10
0.000120068
-1.58289e-10
3.18365e-10
-2.4e-10
1.51765e-10
0.00250436
9.02934e-11
-6.49904e-10
0.00250436
1.78649e-10
2.12963e-10
0.00250436
-9.75272e-11
6.82219e-10
-1.84679e-10
-1.88669e-10
0.0522274
3.67021e-10
-1.08574e-09
0.0522274
-2.67277e-10
8.38161e-10
0.0522274
-3.59891e-10
1.04367e-09
2.76441e-10
-8.92822e-10
1.08916
-2.36674e-09
1.08916
1.10279e-09
1.08916
2.40417e-09
-1.08551e-09
5.92519e-10
2.15781e-12
-2.96337e-14
5.89779e-10
2.37068e-12
2.87127e-14
5.92305e-10
-2.14951e-12
9.6152e-14
-2.34749e-12
3.88857e-14
1.31332e-08
1.006e-11
-7.44655e-13
1.31217e-08
1.14606e-11
-2.84395e-13
1.31321e-08
-1.01134e-11
1.47463e-13
-1.1428e-11
-3.52515e-13
2.75458e-07
3.72466e-11
-4.6835e-12
2.75409e-07
4.61249e-11
-8.63405e-13
2.75451e-07
-3.75145e-11
1.18216e-12
-4.61025e-11
-2.8939e-12
5.75539e-06
1.02845e-10
-2.00216e-11
5.75522e-06
1.46218e-10
9.29201e-12
5.75536e-06
-1.02871e-10
1.28662e-11
-1.46022e-10
-1.75311e-11
0.00012008
1.44581e-10
-7.18143e-11
0.000120079
2.62379e-10
1.11179e-10
0.00012008
-1.41518e-10
7.49884e-11
-2.59718e-10
-1.10879e-10
0.00250437
5.25245e-11
-4.02409e-10
0.00250437
1.40739e-10
5.94396e-10
0.00250437
-4.59408e-11
4.2688e-10
-1.35606e-10
-5.68262e-10
0.0522274
-3.2894e-11
-1.60067e-09
0.0522274
3.93491e-11
1.80721e-09
0.0522274
2.59544e-11
1.56739e-09
-4.63632e-11
-1.84499e-09
1.08916
-1.03397e-09
1.08916
1.0473e-09
1.08916
1.05532e-09
-1.02791e-09
5.93257e-10
2.07378e-12
3.46154e-13
5.90495e-10
2.40795e-12
3.82928e-13
5.92933e-10
-2.01016e-12
-3.31639e-13
-2.34021e-12
-3.8175e-13
1.31416e-08
9.32574e-12
2.08584e-12
1.31297e-08
1.17342e-11
2.36022e-12
1.31398e-08
-9.6335e-12
-2.32418e-12
-1.20168e-11
-2.6412e-12
2.75526e-07
3.3255e-11
1.25102e-11
2.75472e-07
4.93862e-11
1.48147e-11
2.75514e-07
-3.57747e-11
-1.38456e-11
-5.18074e-11
-1.63977e-11
5.75574e-06
8.05349e-11
6.29851e-11
5.75555e-06
1.6949e-10
7.9235e-11
5.75568e-06
-8.74743e-11
-6.58568e-11
-1.76269e-10
-8.29954e-11
0.000120081
4.16789e-11
2.12727e-10
0.00012008
3.78508e-10
2.82916e-10
0.000120081
-4.62357e-11
-2.13574e-10
-3.82134e-10
-2.84135e-10
0.00250437
-1.04687e-10
1.78055e-10
0.00250437
3.42509e-10
5.88691e-10
0.00250437
1.17932e-10
-1.74816e-10
-3.28252e-10
-5.77021e-10
0.0522274
1.46235e-10
-6.49848e-11
0.0522274
-2.00878e-10
3.24112e-11
0.0522274
-1.65124e-10
5.53771e-11
1.81137e-10
-2.77301e-11
1.08916
-7.66498e-10
1.08916
2.05388e-09
1.08916
7.63067e-10
-2.04833e-09
5.90428e-10
2.6376e-12
5.16672e-13
5.87239e-10
3.05338e-12
5.19607e-13
5.90037e-10
-2.52948e-12
-5.99323e-13
-2.96653e-12
-6.03565e-13
1.31076e-08
1.22546e-11
3.71696e-12
1.30941e-08
1.5236e-11
3.68723e-12
1.31053e-08
-1.25642e-11
-3.52601e-12
-1.57022e-11
-3.43884e-12
2.75211e-07
4.30802e-11
2.24652e-11
2.75157e-07
6.21268e-11
2.22876e-11
2.75198e-07
-4.60931e-11
-2.11413e-11
-6.5943e-11
-2.04912e-11
5.75353e-06
9.04933e-11
1.08766e-10
5.75337e-06
1.96478e-10
1.01665e-10
5.75347e-06
-9.91825e-11
-1.06871e-10
-2.07482e-10
-9.73374e-11
0.00012007
6.08165e-11
3.50408e-10
0.00012007
3.50617e-10
3.38514e-10
0.00012007
-6.77709e-11
-3.57924e-10
-3.59584e-10
-3.36835e-10
0.00250435
-4.87959e-11
8.73158e-10
0.00250435
2.70822e-10
2.49681e-10
0.00250435
6.37055e-11
-8.99946e-10
-2.55291e-10
-2.54352e-10
0.0522274
-1.73535e-10
-6.33776e-10
0.0522274
2.6036e-10
7.08754e-10
0.0522274
1.51767e-10
6.52258e-10
-2.80428e-10
-6.59879e-10
1.08916
1.88933e-09
1.08916
-1.57597e-10
1.08916
-1.92724e-09
1.55792e-10
5.8406e-10
3.50376e-12
3.90412e-13
5.80296e-10
3.93713e-12
3.4759e-13
5.83692e-10
-3.45991e-12
-5.33642e-13
-3.88818e-12
-4.63338e-13
1.30324e-08
1.68963e-11
3.27207e-12
1.30173e-08
1.98243e-11
2.84099e-12
1.30303e-08
-1.7287e-11
-2.66398e-12
-2.01418e-11
-2.22772e-12
2.74537e-07
6.00641e-11
2.01041e-11
2.74484e-07
7.86164e-11
1.60352e-11
2.74525e-07
-6.30838e-11
-1.62184e-11
-8.08014e-11
-1.23139e-11
5.74901e-06
1.38729e-10
9.09741e-11
5.7489e-06
2.17921e-10
6.8537e-11
5.74897e-06
-1.47574e-10
-8.27372e-11
-2.23412e-10
-6.14152e-11
0.000120051
2.78525e-11
3.42487e-10
0.000120051
4.26366e-10
1.02334e-10
0.000120051
-3.6892e-11
-3.44594e-10
-4.3055e-10
-1.07174e-10
0.00250432
-2.55172e-10
4.63594e-10
0.00250432
4.73956e-10
2.70732e-11
0.00250431
2.63241e-10
-4.92914e-10
-4.67134e-10
-5.7318e-11
0.0522274
3.67202e-10
3.19732e-09
0.0522274
-1.48797e-10
-3.41495e-09
0.0522274
-3.74547e-10
-3.12995e-09
1.38459e-10
3.44753e-09
1.08916
7.96435e-10
1.08916
4.87587e-10
1.08916
-8.39415e-10
-5.02009e-10
5.77611e-10
4.15222e-12
5.73474e-10
4.51334e-12
5.77288e-10
-4.25374e-12
-4.5577e-12
1.29573e-08
2.07271e-11
1.29414e-08
2.29475e-11
1.29557e-08
-2.10372e-11
-2.29829e-11
2.73878e-07
7.61165e-11
2.7383e-07
8.62677e-11
2.7387e-07
-7.66395e-11
-8.61904e-11
5.74474e-06
1.65211e-10
5.74469e-06
2.26731e-10
5.74471e-06
-1.65484e-10
-2.27191e-10
0.000120033
1.94484e-10
0.000120033
2.37626e-10
0.000120033
-1.97153e-10
-2.3762e-10
0.00250428
1.60689e-10
0.00250428
1.54151e-11
0.00250428
-1.68798e-10
-1.79666e-11
0.0522275
-1.36811e-10
0.0522275
5.53433e-10
0.0522275
1.44606e-10
-5.42726e-10
1.08916
1.08916
1.08916
)
;

boundaryField
{
    movingWall
    {
        type            calculated;
        value           uniform 0;
    }
    CPLReceiveMD
    {
        type            calculated;
        value           uniform 0;
    }
    streamwiseIn
    {
        type            cyclic;
        value           nonuniform List<scalar> 0();
    }
    streamwiseOut
    {
        type            cyclic;
        value           nonuniform List<scalar> 0();
    }
    front
    {
        type            cyclic;
        value           nonuniform List<scalar> 
32
(
4.20617e-14
8.95024e-13
5.1371e-12
2.46544e-11
5.16423e-11
5.9519e-10
-4.75551e-10
2.60738e-09
-3.1367e-14
2.18182e-13
6.34622e-13
-1.52038e-11
-6.95155e-11
-8.42441e-10
7.43346e-10
-2.64121e-09
-9.34488e-14
-1.21543e-13
-9.78058e-13
-1.55325e-11
-4.97281e-11
-6.22281e-10
5.38482e-10
-2.62471e-09
-2.14722e-14
4.19182e-13
2.92333e-12
2.17525e-11
6.25844e-11
8.17945e-10
-7.35497e-10
2.61963e-09
)
;
    }
    back
    {
        type            cyclic;
        value           nonuniform List<scalar> 
32
(
-4.20617e-14
-8.95024e-13
-5.1371e-12
-2.46544e-11
-5.16423e-11
-5.9519e-10
4.75551e-10
-2.60738e-09
3.1367e-14
-2.18182e-13
-6.34622e-13
1.52038e-11
6.95155e-11
8.42441e-10
-7.43346e-10
2.64121e-09
9.34488e-14
1.21543e-13
9.78058e-13
1.55325e-11
4.97281e-11
6.22281e-10
-5.38482e-10
2.62471e-09
2.14722e-14
-4.19182e-13
-2.92333e-12
-2.17525e-11
-6.25844e-11
-8.17945e-10
7.35497e-10
-2.61963e-09
)
;
    }
    procBoundary0to1
    {
        type            processor;
        value           nonuniform List<scalar> 
64
(
5.80873e-10
1.2964e-08
2.73854e-07
5.74442e-06
0.000120032
0.00250428
0.0522275
1.08916
5.85935e-10
1.30263e-08
2.74419e-07
5.74824e-06
0.000120049
0.00250432
0.0522275
1.08916
5.91652e-10
1.30992e-08
2.75092e-07
5.7528e-06
0.000120069
0.00250436
0.0522274
1.08916
5.95035e-10
1.31436e-08
2.755e-07
5.75553e-06
0.00012008
0.00250438
0.0522274
1.08916
5.95695e-10
1.31517e-08
2.75567e-07
5.75587e-06
0.000120081
0.00250437
0.0522274
1.08916
5.93228e-10
1.31189e-08
2.75252e-07
5.75362e-06
0.000120071
0.00250435
0.0522274
1.08916
5.87444e-10
1.30453e-08
2.74578e-07
5.74907e-06
0.000120051
0.00250431
0.0522274
1.08916
5.81409e-10
1.29715e-08
2.73918e-07
5.74477e-06
0.000120033
0.00250428
0.0522275
1.08916
)
;
    }
    procBoundary0to1throughstreamwiseIn
    {
        type            processorCyclic;
        value           nonuniform List<scalar> 
64
(
-5.80891e-10
-1.2964e-08
-2.73854e-07
-5.74442e-06
-0.000120032
-0.00250428
-0.0522275
-1.08916
-5.85947e-10
-1.30263e-08
-2.74419e-07
-5.74824e-06
-0.000120049
-0.00250432
-0.0522275
-1.08916
-5.91645e-10
-1.30992e-08
-2.75092e-07
-5.7528e-06
-0.000120069
-0.00250436
-0.0522274
-1.08916
-5.95042e-10
-1.31436e-08
-2.755e-07
-5.75553e-06
-0.00012008
-0.00250438
-0.0522274
-1.08916
-5.95706e-10
-1.31517e-08
-2.75567e-07
-5.75587e-06
-0.000120081
-0.00250437
-0.0522274
-1.08916
-5.93235e-10
-1.31189e-08
-2.75252e-07
-5.75362e-06
-0.000120071
-0.00250435
-0.0522274
-1.08916
-5.87438e-10
-1.30453e-08
-2.74578e-07
-5.74907e-06
-0.000120051
-0.00250431
-0.0522274
-1.08916
-5.81424e-10
-1.29714e-08
-2.73918e-07
-5.74477e-06
-0.000120033
-0.00250428
-0.0522275
-1.08916
)
;
    }
}


// ************************************************************************* //
