/*--------------------------------*- C++ -*----------------------------------*\
| =========                 |                                                 |
| \\      /  F ield         | OpenFOAM: The Open Source CFD Toolbox           |
|  \\    /   O peration     | Version:  2112                                  |
|   \\  /    A nd           | Website:  www.openfoam.com                      |
|    \\/     M anipulation  |                                                 |
\*---------------------------------------------------------------------------*/
FoamFile
{
    version     2.0;
    format      ascii;
    arch        "LSB;label=32;scalar=64";
    class       volVectorField;
    location    "2";
    object      U;
}
// * * * * * * * * * * * * * * * * * * * * * * * * * * * * * * * * * * * * * //

dimensions      [0 1 -1 0 0 0 0];

internalField   nonuniform List<vector> 
256
(
(1.9136e-10 -1.99013e-13 -5.15144e-15)
(1.90262e-10 -1.03639e-14 -7.93354e-15)
(1.90026e-10 -1.33075e-12 5.73729e-14)
(1.91115e-10 -1.51949e-12 6.13706e-14)
(4.15782e-09 1.69394e-12 -2.49591e-13)
(4.15287e-09 3.0633e-12 -2.54402e-13)
(4.1516e-09 -6.14347e-12 2.02561e-13)
(4.15657e-09 -7.57011e-12 2.28079e-13)
(8.49457e-08 2.22192e-11 -1.884e-12)
(8.4927e-08 3.02388e-11 -1.86227e-12)
(8.49193e-08 -1.82202e-11 1.25675e-12)
(8.49383e-08 -2.69412e-11 1.254e-12)
(1.70615e-06 1.11917e-10 -1.14555e-11)
(1.70612e-06 1.5737e-10 -9.98287e-12)
(1.70607e-06 -5.5169e-11 8.40435e-12)
(1.70611e-06 -1.05037e-10 6.30901e-12)
(3.34763e-05 2.69639e-10 -5.71802e-11)
(3.34764e-05 5.04337e-10 -4.02289e-11)
(3.34763e-05 -1.67369e-10 4.79503e-11)
(3.34762e-05 -4.18294e-10 2.44408e-11)
(0.0006333 2.18387e-10 -2.6373e-10)
(0.000633301 1.1925e-09 -3.82254e-11)
(0.000633301 -4.04921e-10 2.49611e-10)
(0.000633301 -1.41565e-09 8.39259e-14)
(0.0112352 6.46258e-10 -7.48264e-10)
(0.0112353 -1.09754e-09 2.72006e-10)
(0.0112352 -8.52325e-10 8.11105e-10)
(0.0112353 1.08979e-09 -3.80604e-10)
(0.174494 7.74632e-10 -2.02272e-09)
(0.174494 -1.961e-09 1.77672e-09)
(0.174494 -7.57035e-10 1.61777e-09)
(0.174494 2.17689e-09 -1.61284e-09)
(1.92156e-10 -2.91949e-13 -7.18782e-14)
(1.91147e-10 -9.79705e-14 -6.56399e-14)
(1.90915e-10 -1.25927e-12 1.10736e-13)
(1.91916e-10 -1.45442e-12 1.03343e-13)
(4.16767e-09 9.78966e-13 -8.01738e-13)
(4.16304e-09 2.4547e-12 -7.36479e-13)
(4.16173e-09 -5.60951e-12 4.72156e-13)
(4.16637e-09 -7.06736e-12 4.10425e-13)
(8.50397e-08 1.81612e-11 -4.77348e-12)
(8.50211e-08 2.76214e-11 -4.13319e-12)
(8.50129e-08 -1.49433e-11 3.60325e-12)
(8.50317e-08 -2.42496e-11 3.14962e-12)
(1.70687e-06 9.06007e-11 -2.40354e-11)
(1.70682e-06 1.44273e-10 -1.76045e-11)
(1.70678e-06 -3.9217e-11 2.35609e-11)
(1.70683e-06 -9.2023e-11 1.91068e-11)
(3.34804e-05 2.00301e-10 -1.14071e-10)
(3.34803e-05 5.29608e-10 -6.72532e-11)
(3.34802e-05 -1.23263e-10 1.06652e-10)
(3.34802e-05 -4.46434e-10 7.12816e-11)
(0.000633315 4.68418e-11 -3.82218e-10)
(0.000633315 9.72428e-10 -5.86657e-11)
(0.000633316 -2.55472e-10 2.98391e-10)
(0.000633315 -1.19002e-09 1.21725e-11)
(0.0112353 8.90395e-10 -6.90183e-10)
(0.0112353 -9.40588e-10 1.85753e-10)
(0.0112353 -9.93056e-10 5.84472e-10)
(0.0112353 8.11219e-10 -2.16358e-10)
(0.174494 1.08271e-09 8.96537e-11)
(0.174494 -1.60584e-09 4.31073e-10)
(0.174494 -9.68245e-10 1.61663e-10)
(0.174494 1.69956e-09 -7.53083e-10)
(1.93111e-10 -4.64631e-13 -1.05635e-13)
(1.92249e-10 -2.53599e-13 -9.32509e-14)
(1.92002e-10 -1.18627e-12 9.13798e-14)
(1.92862e-10 -1.39543e-12 7.38654e-14)
(4.17963e-09 -4.78033e-14 -9.34413e-13)
(4.17552e-09 1.55658e-12 -8.3463e-13)
(4.17414e-09 -4.85505e-12 4.0456e-13)
(4.17826e-09 -6.44658e-12 3.03514e-13)
(8.51538e-08 1.36141e-11 -4.91953e-12)
(8.51351e-08 2.39914e-11 -4.17025e-12)
(8.51263e-08 -9.66892e-12 3.72634e-12)
(8.51453e-08 -2.00167e-11 2.94984e-12)
(1.70773e-06 7.14359e-11 -2.18534e-11)
(1.70766e-06 1.33993e-10 -1.66327e-11)
(1.70762e-06 -1.70021e-11 2.60924e-11)
(1.70769e-06 -7.98039e-11 2.06351e-11)
(3.34852e-05 1.36978e-10 -9.26764e-11)
(3.3485e-05 4.89212e-10 -5.18392e-11)
(3.34849e-05 -6.55749e-11 1.10423e-10)
(3.34851e-05 -4.20943e-10 6.84698e-11)
(0.000633332 8.09147e-12 -2.74889e-10)
(0.000633333 1.28884e-09 -1.29573e-10)
(0.000633333 -2.30806e-10 2.50817e-10)
(0.000633333 -1.52443e-09 8.82111e-11)
(0.0112353 8.5696e-10 5.67189e-11)
(0.0112353 -8.69037e-10 5.26645e-10)
(0.0112353 -9.37196e-10 -1.04156e-10)
(0.0112353 7.64066e-10 -5.63869e-10)
(0.174494 1.09846e-09 1.75462e-09)
(0.174494 -1.7992e-09 -5.7107e-10)
(0.174494 -9.5336e-10 -1.63323e-09)
(0.174494 1.92547e-09 7.78809e-10)
(1.93717e-10 -5.95946e-13 -5.16944e-14)
(1.92961e-10 -3.68409e-13 -4.01099e-14)
(1.92703e-10 -1.13456e-12 4.25024e-14)
(1.93457e-10 -1.36231e-12 3.40297e-14)
(4.18719e-09 -8.02166e-13 -4.25824e-13)
(4.18349e-09 9.46372e-13 -3.56929e-13)
(4.18201e-09 -4.2665e-12 2.10904e-13)
(4.18572e-09 -6.0053e-12 1.36757e-13)
(8.52247e-08 1.04135e-11 -2.07432e-12)
(8.52059e-08 2.17703e-11 -1.59186e-12)
(8.51966e-08 -5.42929e-12 1.96735e-12)
(8.52156e-08 -1.67194e-11 1.44697e-12)
(1.70825e-06 5.80974e-11 -8.09082e-12)
(1.70817e-06 1.26619e-10 -5.17306e-12)
(1.70812e-06 3.00823e-13 1.34311e-11)
(1.7082e-06 -6.77574e-11 1.03682e-11)
(3.34879e-05 1.06664e-10 -3.12076e-11)
(3.34877e-05 4.87774e-10 -1.65268e-11)
(3.34876e-05 -4.01112e-11 4.94059e-11)
(3.34878e-05 -4.21403e-10 3.55209e-11)
(0.000633342 1.0712e-10 -2.90975e-11)
(0.000633342 1.18132e-09 2.3932e-11)
(0.000633343 -3.39848e-10 1.9406e-11)
(0.000633342 -1.41883e-09 -2.84249e-11)
(0.0112353 1.76789e-09 7.57431e-10)
(0.0112353 -1.22289e-09 -3.61415e-10)
(0.0112353 -1.80066e-09 -7.2414e-10)
(0.0112353 1.2058e-09 4.10332e-10)
(0.174494 1.93875e-09 2.95427e-09)
(0.174494 -2.03766e-09 -5.50194e-10)
(0.174494 -1.7399e-09 -2.72119e-09)
(0.174494 2.2495e-09 9.1572e-10)
(1.93825e-10 -6.01839e-13 4.06888e-14)
(1.93078e-10 -3.68962e-13 4.17847e-14)
(1.92812e-10 -1.1203e-12 -1.79629e-14)
(1.93557e-10 -1.35413e-12 -1.90836e-14)
(4.18847e-09 -7.94896e-13 3.62751e-13)
(4.18477e-09 9.83631e-13 3.61521e-13)
(4.18325e-09 -4.14277e-12 -5.1796e-14)
(4.18697e-09 -5.92374e-12 -5.90939e-14)
(8.52357e-08 1.07753e-11 2.14149e-12)
(8.52165e-08 2.22077e-11 2.01535e-12)
(8.52071e-08 -4.77256e-12 -7.83336e-13)
(8.52267e-08 -1.62273e-11 -7.52448e-13)
(1.70832e-06 6.06453e-11 1.14475e-11)
(1.70823e-06 1.28462e-10 9.39653e-12)
(1.70818e-06 5.68301e-13 -7.24312e-12)
(1.70827e-06 -6.71844e-11 -5.9456e-12)
(3.34881e-05 1.29276e-10 5.54525e-11)
(3.34879e-05 4.99928e-10 3.46261e-11)
(3.34878e-05 -6.3443e-11 -4.70557e-11)
(3.34881e-05 -4.35251e-10 -3.05068e-11)
(0.000633342 3.05833e-10 2.62352e-10)
(0.000633342 1.1506e-09 1.63612e-11)
(0.000633343 -5.23111e-10 -2.46531e-10)
(0.000633343 -1.37533e-09 -1.97441e-11)
(0.0112353 2.07116e-09 8.4188e-10)
(0.0112353 -1.29834e-09 -2.77277e-10)
(0.0112353 -2.03799e-09 -7.23365e-10)
(0.0112353 1.35581e-09 3.65476e-10)
(0.174494 2.18951e-09 1.94653e-09)
(0.174494 -2.08228e-09 -1.6377e-09)
(0.174494 -1.93921e-09 -1.66931e-09)
(0.174494 2.3579e-09 1.74797e-09)
(1.93371e-10 -4.77794e-13 9.55653e-14)
(1.92527e-10 -2.50692e-13 8.56493e-14)
(1.92265e-10 -1.14844e-12 -8.4351e-14)
(1.93108e-10 -1.37858e-12 -7.83985e-14)
(4.18277e-09 -2.29938e-14 9.01914e-13)
(4.17864e-09 1.67838e-12 8.40609e-13)
(4.17717e-09 -4.54726e-12 -3.48356e-13)
(4.18131e-09 -6.27429e-12 -2.8871e-13)
(8.51808e-08 1.4519e-11 5.0199e-12)
(8.51607e-08 2.51167e-11 4.43637e-12)
(8.51521e-08 -8.09268e-12 -3.28648e-12)
(8.51723e-08 -1.88996e-11 -2.75811e-12)
(1.70789e-06 7.78423e-11 2.39428e-11)
(1.70781e-06 1.38697e-10 1.88303e-11)
(1.70778e-06 -1.68371e-11 -2.39856e-11)
(1.70786e-06 -7.87775e-11 -1.9404e-11)
(3.34857e-05 1.99629e-10 1.10518e-10)
(3.34855e-05 4.90244e-10 6.21052e-11)
(3.34856e-05 -1.28774e-10 -1.16555e-10)
(3.34857e-05 -4.26408e-10 -7.13437e-11)
(0.000633334 3.99461e-10 3.61914e-10)
(0.000633334 1.05577e-09 5.54678e-11)
(0.000633335 -5.91588e-10 -3.29914e-10)
(0.000633334 -1.26234e-09 -2.87932e-11)
(0.0112353 2.47278e-09 6.59005e-10)
(0.0112353 -2.00408e-09 -1.58067e-10)
(0.0112353 -2.3973e-09 -6.28958e-10)
(0.0112353 2.04613e-09 2.62959e-10)
(0.174494 2.51109e-09 -4.25942e-12)
(0.174494 -2.68158e-09 -5.94264e-10)
(0.174494 -2.24537e-09 -9.68568e-11)
(0.174494 2.9269e-09 5.85325e-10)
(1.92403e-10 -3.05711e-13 7.00963e-14)
(1.91421e-10 -9.19251e-14 5.93982e-14)
(1.9117e-10 -1.22404e-12 -1.30791e-13)
(1.92151e-10 -1.43804e-12 -1.16154e-13)
(4.17077e-09 1.02896e-12 8.21248e-13)
(4.16612e-09 2.59529e-12 7.27507e-13)
(4.16475e-09 -5.32363e-12 -5.55329e-13)
(4.16941e-09 -6.91144e-12 -4.72505e-13)
(8.50668e-08 1.93089e-11 4.66204e-12)
(8.50469e-08 2.88705e-11 4.01716e-12)
(8.50391e-08 -1.3527e-11 -4.19975e-12)
(8.50593e-08 -2.3307e-11 -3.45139e-12)
(1.70704e-06 9.97193e-11 2.18614e-11)
(1.70698e-06 1.4982e-10 1.72191e-11)
(1.70694e-06 -4.13837e-11 -2.72536e-11)
(1.70701e-06 -9.25857e-11 -2.09985e-11)
(3.34811e-05 2.54434e-10 9.44043e-11)
(3.34811e-05 5.13409e-10 5.74423e-11)
(3.3481e-05 -1.76732e-10 -1.11317e-10)
(3.34811e-05 -4.38641e-10 -6.24035e-11)
(0.000633317 5.07016e-10 2.76267e-10)
(0.000633318 1.06653e-09 1.51438e-10)
(0.000633318 -7.11027e-10 -2.53897e-10)
(0.000633318 -1.24914e-09 -6.85504e-11)
(0.0112353 1.89317e-09 -1.50334e-10)
(0.0112353 -1.58693e-09 -5.21374e-10)
(0.0112353 -1.91911e-09 1.64162e-11)
(0.0112353 1.62883e-09 5.78997e-10)
(0.174494 1.8957e-09 -1.67843e-09)
(0.174494 -2.31849e-09 4.32049e-10)
(0.174494 -1.71452e-09 1.68477e-09)
(0.174494 2.55113e-09 -9.1393e-10)
(1.91459e-10 -2.04035e-13 2.80054e-14)
(1.90364e-10 -8.58277e-15 2.0099e-14)
(1.90125e-10 -1.31689e-12 -6.88887e-14)
(1.91213e-10 -1.52048e-12 -5.89762e-14)
(4.1591e-09 1.67744e-12 3.25642e-13)
(4.15411e-09 3.14413e-12 2.52795e-13)
(4.15281e-09 -6.0494e-12 -3.34709e-13)
(4.15781e-09 -7.50494e-12 -2.58477e-13)
(8.49572e-08 2.23116e-11 1.82789e-12)
(8.49379e-08 3.12246e-11 1.28867e-12)
(8.49304e-08 -1.79809e-11 -2.28412e-12)
(8.49498e-08 -2.65017e-11 -1.83849e-12)
(1.70623e-06 1.11081e-10 8.18343e-12)
(1.70619e-06 1.58483e-10 3.94733e-12)
(1.70615e-06 -5.6511e-11 -1.30063e-11)
(1.70619e-06 -1.0061e-10 -1.00709e-11)
(3.34767e-05 2.93778e-10 3.4761e-11)
(3.34767e-05 5.39951e-10 2.16749e-11)
(3.34767e-05 -2.1264e-10 -3.95032e-11)
(3.34766e-05 -4.44018e-10 -3.54585e-11)
(0.000633302 3.04393e-10 4.94024e-11)
(0.000633302 8.46806e-10 -2.07337e-11)
(0.000633304 -5.40058e-10 1.21179e-11)
(0.000633301 -1.03028e-09 4.5046e-11)
(0.0112353 1.61377e-09 -7.26252e-10)
(0.0112353 -1.78609e-09 3.3373e-10)
(0.0112353 -1.57031e-09 7.68627e-10)
(0.0112353 1.59737e-09 -4.56932e-10)
(0.174494 1.70169e-09 -3.03967e-09)
(0.174494 -2.30611e-09 7.13385e-10)
(0.174494 -1.4338e-09 2.65638e-09)
(0.174494 2.33675e-09 -7.47962e-10)
)
;

boundaryField
{
    movingWall
    {
        type            fixedValue;
        value           uniform (1 0 0);
    }
    CPLReceiveMD
    {
        type            fixedValue;
        value           uniform (0 0 0);
    }
    streamwiseIn
    {
        type            cyclic;
    }
    streamwiseOut
    {
        type            cyclic;
    }
    front
    {
        type            cyclic;
    }
    back
    {
        type            cyclic;
    }
    procBoundary0to1
    {
        type            processor;
        value           nonuniform List<vector> 
64
(
(1.91344e-10 -1.99426e-13 -6.23911e-15)
(4.15782e-09 1.69382e-12 -2.49566e-13)
(8.49457e-08 2.22195e-11 -1.88382e-12)
(1.70615e-06 1.11917e-10 -1.14553e-11)
(3.34763e-05 2.69639e-10 -5.71801e-11)
(0.0006333 2.18387e-10 -2.6373e-10)
(0.0112352 6.46259e-10 -7.48264e-10)
(0.174494 7.74632e-10 -2.02272e-09)
(1.92143e-10 -2.919e-13 -7.22653e-14)
(4.16767e-09 9.79205e-13 -8.01079e-13)
(8.50397e-08 1.81615e-11 -4.77318e-12)
(1.70687e-06 9.06008e-11 -2.40352e-11)
(3.34804e-05 2.00301e-10 -1.14071e-10)
(0.000633315 4.68418e-11 -3.82218e-10)
(0.0112353 8.90395e-10 -6.90183e-10)
(0.174494 1.08271e-09 8.96532e-11)
(1.93107e-10 -4.64535e-13 -1.0506e-13)
(4.17963e-09 -4.75939e-14 -9.33983e-13)
(8.51538e-08 1.36143e-11 -4.91938e-12)
(1.70773e-06 7.1436e-11 -2.18533e-11)
(3.34852e-05 1.36978e-10 -9.26763e-11)
(0.000633332 8.09145e-12 -2.74889e-10)
(0.0112353 8.5696e-10 5.67189e-11)
(0.174494 1.09846e-09 1.75462e-09)
(1.93713e-10 -5.9592e-13 -5.12599e-14)
(4.18719e-09 -8.02066e-13 -4.25672e-13)
(8.52247e-08 1.04136e-11 -2.07428e-12)
(1.70825e-06 5.80975e-11 -8.0908e-12)
(3.34879e-05 1.06664e-10 -3.12076e-11)
(0.000633342 1.0712e-10 -2.90975e-11)
(0.0112353 1.76789e-09 7.57431e-10)
(0.174494 1.93875e-09 2.95427e-09)
(1.9382e-10 -6.01829e-13 4.08436e-14)
(4.18847e-09 -7.94824e-13 3.62689e-13)
(8.52357e-08 1.07754e-11 2.14142e-12)
(1.70832e-06 6.06454e-11 1.14475e-11)
(3.34881e-05 1.29276e-10 5.54525e-11)
(0.000633342 3.05833e-10 2.62352e-10)
(0.0112353 2.07116e-09 8.4188e-10)
(0.174494 2.18951e-09 1.94653e-09)
(1.93368e-10 -4.77823e-13 9.549e-14)
(4.18277e-09 -2.2957e-14 9.01662e-13)
(8.51808e-08 1.45191e-11 5.01974e-12)
(1.70789e-06 7.78424e-11 2.39427e-11)
(3.34857e-05 1.99629e-10 1.10517e-10)
(0.000633334 3.99461e-10 3.61914e-10)
(0.0112353 2.47278e-09 6.59005e-10)
(0.174494 2.51109e-09 -4.25947e-12)
(1.924e-10 -3.05737e-13 7.0454e-14)
(4.17077e-09 1.02902e-12 8.20855e-13)
(8.50668e-08 1.93091e-11 4.66177e-12)
(1.70704e-06 9.97194e-11 2.18612e-11)
(3.34811e-05 2.54434e-10 9.44041e-11)
(0.000633317 5.07016e-10 2.76267e-10)
(0.0112353 1.89317e-09 -1.50334e-10)
(0.174494 1.8957e-09 -1.67844e-09)
(1.91443e-10 -2.04327e-13 2.80334e-14)
(4.1591e-09 1.67725e-12 3.25083e-13)
(8.49572e-08 2.23118e-11 1.82773e-12)
(1.70623e-06 1.11081e-10 8.18332e-12)
(3.34767e-05 2.93778e-10 3.47609e-11)
(0.000633302 3.04393e-10 4.94024e-11)
(0.0112353 1.61377e-09 -7.26252e-10)
(0.174494 1.70169e-09 -3.03967e-09)
)
;
    }
    procBoundary0to1throughstreamwiseIn
    {
        type            processorCyclic;
        value           nonuniform List<vector> 
64
(
(1.91132e-10 -1.51372e-12 6.1799e-14)
(4.15657e-09 -7.56554e-12 2.27601e-13)
(8.49383e-08 -2.69415e-11 1.25381e-12)
(1.70611e-06 -1.05037e-10 6.3089e-12)
(3.34762e-05 -4.18294e-10 2.44407e-11)
(0.000633301 -1.41565e-09 8.38895e-14)
(0.0112353 1.08979e-09 -3.80604e-10)
(0.174494 2.17689e-09 -1.61284e-09)
(1.91925e-10 -1.4496e-12 1.0952e-13)
(4.16637e-09 -7.06346e-12 4.10668e-13)
(8.50317e-08 -2.42501e-11 3.14978e-12)
(1.70683e-06 -9.20229e-11 1.91067e-11)
(3.34802e-05 -4.46434e-10 7.12815e-11)
(0.000633315 -1.19002e-09 1.21724e-11)
(0.0112353 8.11219e-10 -2.16358e-10)
(0.174494 1.69956e-09 -7.53083e-10)
(1.92869e-10 -1.39389e-12 7.93339e-14)
(4.17826e-09 -6.44566e-12 3.02572e-13)
(8.51453e-08 -2.00172e-11 2.95015e-12)
(1.70769e-06 -7.98038e-11 2.06351e-11)
(3.34851e-05 -4.20943e-10 6.84697e-11)
(0.000633333 -1.52443e-09 8.82111e-11)
(0.0112353 7.64066e-10 -5.63869e-10)
(0.174494 1.92547e-09 7.78809e-10)
(1.93461e-10 -1.36099e-12 3.30497e-14)
(4.18572e-09 -6.0043e-12 1.361e-13)
(8.52156e-08 -1.67197e-11 1.44713e-12)
(1.7082e-06 -6.77573e-11 1.03682e-11)
(3.34878e-05 -4.21403e-10 3.55209e-11)
(0.000633342 -1.41883e-09 -2.84249e-11)
(0.0112353 1.2058e-09 4.10332e-10)
(0.174494 2.2495e-09 9.1572e-10)
(1.93562e-10 -1.35292e-12 -1.88429e-14)
(4.18697e-09 -5.92277e-12 -5.89538e-14)
(8.52267e-08 -1.62275e-11 -7.52407e-13)
(1.70827e-06 -6.71844e-11 -5.94557e-12)
(3.34881e-05 -4.35251e-10 -3.05068e-11)
(0.000633343 -1.37532e-09 -1.97441e-11)
(0.0112353 1.35581e-09 3.65476e-10)
(0.174494 2.3579e-09 1.74797e-09)
(1.93112e-10 -1.3773e-12 -7.70768e-14)
(4.18131e-09 -6.27337e-12 -2.87769e-13)
(8.51723e-08 -1.88999e-11 -2.75818e-12)
(1.70786e-06 -7.87775e-11 -1.9404e-11)
(3.34857e-05 -4.26408e-10 -7.13437e-11)
(0.000633334 -1.26234e-09 -2.87932e-11)
(0.0112353 2.04613e-09 2.62959e-10)
(0.174494 2.9269e-09 5.85325e-10)
(1.92159e-10 -1.43652e-12 -1.22292e-13)
(4.16941e-09 -6.91061e-12 -4.71225e-13)
(8.50593e-08 -2.33075e-11 -3.45156e-12)
(1.70701e-06 -9.25856e-11 -2.09984e-11)
(3.34811e-05 -4.38641e-10 -6.24034e-11)
(0.000633318 -1.24914e-09 -6.85504e-11)
(0.0112353 1.62883e-09 5.78997e-10)
(0.174494 2.55113e-09 -9.1393e-10)
(1.91221e-10 -1.51522e-12 -6.54942e-14)
(4.15781e-09 -7.50074e-12 -2.59004e-13)
(8.49498e-08 -2.65024e-11 -1.83874e-12)
(1.70619e-06 -1.0061e-10 -1.00709e-11)
(3.34766e-05 -4.44018e-10 -3.54585e-11)
(0.000633301 -1.03028e-09 4.5046e-11)
(0.0112353 1.59737e-09 -4.56932e-10)
(0.174494 2.33675e-09 -7.47962e-10)
)
;
    }
}


// ************************************************************************* //
