/*--------------------------------*- C++ -*----------------------------------*\
| =========                 |                                                 |
| \\      /  F ield         | OpenFOAM: The Open Source CFD Toolbox           |
|  \\    /   O peration     | Version:  2112                                  |
|   \\  /    A nd           | Website:  www.openfoam.com                      |
|    \\/     M anipulation  |                                                 |
\*---------------------------------------------------------------------------*/
FoamFile
{
    version     2.0;
    format      ascii;
    arch        "LSB;label=32;scalar=64";
    class       surfaceScalarField;
    location    "4";
    object      phi_0;
}
// * * * * * * * * * * * * * * * * * * * * * * * * * * * * * * * * * * * * * //

dimensions      [0 3 -1 0 0 0 0];

oriented        oriented;

internalField   nonuniform List<scalar> 
640
(
7.61982e-09
9.47746e-12
-2.22525e-13
7.60565e-09
1.4661e-11
-4.76929e-13
7.61588e-09
-1.12921e-11
9.99729e-13
-1.51528e-11
8.50665e-13
1.58527e-07
5.37508e-11
-7.23079e-12
1.5847e-07
7.80861e-11
-6.50756e-12
1.58506e-07
-5.39106e-11
4.93121e-12
-7.91203e-11
4.21916e-12
3.05731e-06
2.35018e-10
-4.29728e-11
3.05705e-06
3.66578e-10
-3.61412e-11
3.05719e-06
-2.29045e-10
3.10375e-11
-3.71557e-10
2.43259e-11
5.70181e-05
7.10774e-10
-2.29766e-10
5.70172e-05
1.38845e-09
-1.6001e-10
5.70175e-05
-6.85566e-10
1.85227e-10
-1.42389e-09
1.23434e-10
0.00101433
1.33979e-09
-1.00391e-09
0.00101433
3.45949e-09
-5.04701e-10
0.00101433
-1.45422e-09
9.84349e-10
-3.69969e-09
5.30461e-10
0.0168042
2.65207e-09
-3.29805e-09
0.0168042
8.90284e-10
8.70296e-11
0.0168042
-2.58837e-09
3.31981e-09
-1.15818e-09
-1.25721e-10
0.24778
3.46022e-09
-8.86152e-09
0.24778
-7.36474e-09
3.5592e-09
0.24778
-3.34791e-09
8.85375e-09
7.80008e-09
-3.64017e-09
2.94276
-8.44169e-09
2.94276
9.90178e-09
2.94276
8.30334e-09
-9.86849e-09
7.63477e-09
8.34249e-12
-9.05206e-13
7.62097e-09
1.40943e-11
-7.76894e-13
7.62982e-09
-9.55796e-12
1.71081e-12
-1.33758e-11
1.27738e-12
1.5869e-07
4.41749e-11
-8.87604e-12
1.58634e-07
7.10014e-11
-8.00958e-12
1.58667e-07
-4.53626e-11
7.86463e-12
-7.22915e-11
7.01732e-12
3.05878e-06
1.81631e-10
-4.86774e-11
3.05852e-06
3.35507e-10
-4.24935e-11
3.05864e-06
-1.9341e-10
5.38519e-11
-3.55284e-10
4.24631e-11
5.70288e-05
5.23541e-10
-2.83215e-10
5.70278e-05
1.37321e-09
-2.16318e-10
5.70281e-05
-5.56964e-10
2.77863e-10
-1.43692e-09
2.06069e-10
0.00101439
8.57531e-10
-1.11139e-09
0.00101439
3.57528e-09
-5.74608e-10
0.00101439
-1.05544e-09
1.25012e-09
-3.75854e-09
7.26111e-10
0.0168044
2.26052e-09
-3.19061e-09
0.0168044
1.07042e-09
-7.02312e-10
0.0168044
-2.23962e-09
3.21523e-09
-1.46515e-09
6.53415e-10
0.24778
4.70715e-09
-2.0984e-09
0.24778
-6.2051e-09
6.17567e-09
0.247781
-4.37716e-09
1.42666e-09
6.43175e-09
-6.52318e-09
2.94276
5.42599e-09
2.94276
2.49384e-09
2.94276
-4.56384e-09
-2.9044e-09
7.6535e-09
6.03095e-12
-5.26445e-13
7.64085e-09
1.23643e-11
-4.92656e-13
7.64786e-09
-6.67478e-12
1.38319e-12
-1.16292e-11
1.10125e-12
1.58899e-07
3.22466e-11
-5.71034e-12
1.58847e-07
6.09674e-11
-4.85817e-12
1.58876e-07
-3.33194e-11
6.43867e-12
-6.27956e-11
5.51984e-12
3.06064e-06
1.3939e-10
-2.87282e-11
3.06038e-06
2.99628e-10
-2.53854e-11
3.06049e-06
-1.35868e-10
4.58346e-11
-3.29601e-10
3.68584e-11
5.70422e-05
3.91466e-10
-1.78793e-10
5.70411e-05
1.31196e-09
-1.44341e-10
5.70415e-05
-3.91258e-10
2.03636e-10
-1.40096e-09
1.66185e-10
0.00101446
7.55062e-10
-5.98348e-10
0.00101446
3.88805e-09
-3.99945e-10
0.00101446
-8.59699e-10
8.15279e-10
-4.00371e-09
6.04762e-10
0.0168046
2.4742e-09
-9.30641e-10
0.0168046
2.11304e-09
-5.31878e-10
0.0168046
-2.3369e-09
9.31027e-10
-2.33006e-09
3.66662e-10
0.247781
4.17972e-09
5.59466e-09
0.247781
-6.39282e-09
6.68137e-11
0.247781
-4.05945e-09
-6.40108e-09
6.47841e-09
-5.65251e-10
2.94276
2.87033e-08
2.94276
-7.19191e-09
2.94276
-2.86534e-08
7.79944e-09
7.66562e-09
4.67866e-12
1.6547e-13
7.65419e-09
1.07877e-11
1.53833e-13
7.66004e-09
-4.77925e-12
3.06402e-13
-1.03306e-11
2.96576e-13
1.59038e-07
2.42023e-11
4.65391e-13
1.58989e-07
5.44448e-11
5.01353e-13
1.59013e-07
-2.4315e-11
1.36741e-12
-5.59814e-11
1.24112e-12
3.06185e-06
1.19838e-10
3.09373e-12
3.06159e-06
2.78441e-10
2.71942e-12
3.06169e-06
-8.49296e-11
6.44977e-12
-3.0574e-10
6.97587e-12
5.70507e-05
3.58419e-10
2.09315e-11
5.70495e-05
1.29738e-09
1.1081e-11
5.70499e-05
-3.07575e-10
1.04802e-11
-1.36382e-09
2.73613e-11
0.00101451
1.03643e-09
2.80011e-10
0.0010145
3.90236e-09
7.8714e-11
0.0010145
-1.0421e-09
-7.99089e-11
-3.87098e-09
1.016e-10
0.0168048
4.22164e-09
1.77532e-09
0.0168048
1.07582e-09
-7.44719e-11
0.0168048
-4.02226e-09
-1.82167e-09
-1.32308e-09
2.95771e-11
0.247781
7.57738e-09
9.78577e-09
0.247781
-7.72652e-09
-3.79859e-09
0.247781
-7.72424e-09
-1.04931e-08
7.63782e-09
3.38875e-09
2.94276
2.30713e-08
2.94276
-9.03375e-09
2.94276
-2.32769e-08
9.66131e-09
7.66749e-09
4.66009e-12
8.13897e-13
7.6561e-09
1.08345e-11
7.05701e-13
7.66197e-09
-4.58218e-12
-9.83542e-13
-1.01709e-11
-6.96849e-13
1.59059e-07
2.48845e-11
6.42723e-12
1.59009e-07
5.47055e-11
5.70025e-12
1.59034e-07
-2.36698e-11
-4.55161e-12
-5.52886e-11
-3.80247e-12
3.06201e-06
1.2866e-10
3.38686e-11
3.06176e-06
2.8081e-10
2.99607e-11
3.06187e-06
-8.71855e-11
-3.68164e-11
-3.02393e-10
-2.70999e-11
5.70516e-05
4.20171e-10
2.2223e-10
5.70504e-05
1.31685e-09
1.639e-10
5.70509e-05
-3.80104e-10
-1.85132e-10
-1.34501e-09
-1.23185e-10
0.00101451
1.58642e-09
9.95825e-10
0.00101451
3.83062e-09
5.00952e-10
0.00101451
-1.4499e-09
-9.50013e-10
-3.6615e-09
-4.60119e-10
0.0168048
5.53854e-09
3.44656e-09
0.0168048
5.84492e-10
-1.06893e-10
0.0168048
-5.22706e-09
-3.58834e-09
-5.60978e-10
1.28111e-10
0.247781
8.64118e-09
7.49225e-09
0.247781
-8.18433e-09
-4.3735e-09
0.247781
-9.00692e-09
-7.73737e-09
7.89477e-09
4.49178e-09
2.94276
1.30718e-08
2.94276
-1.73464e-08
2.94276
-1.30748e-08
1.71161e-08
7.65802e-09
5.98756e-12
9.36213e-13
7.64552e-09
1.25246e-11
6.79019e-13
7.65251e-09
-6.14997e-12
-1.8264e-12
-1.11737e-11
-1.38892e-12
1.5895e-07
3.34921e-11
9.19219e-12
1.58898e-07
6.18109e-11
8.23497e-12
1.58927e-07
-3.19237e-11
-7.69107e-12
-6.10722e-11
-6.94195e-12
3.06105e-06
1.60347e-10
5.06e-11
3.06079e-06
3.0643e-10
4.38493e-11
3.06092e-06
-1.42193e-10
-5.3575e-11
-3.20961e-10
-4.23416e-11
5.70446e-05
5.83492e-10
2.91773e-10
5.70435e-05
1.33385e-09
2.24621e-10
5.7044e-05
-5.41768e-10
-2.7569e-10
-1.32909e-09
-2.05763e-10
0.00101447
1.99476e-09
1.12562e-09
0.00101447
3.61683e-09
5.80837e-10
0.00101447
-1.76715e-09
-1.2911e-09
-3.40299e-09
-7.23704e-10
0.0168047
6.2128e-09
2.99963e-09
0.0168047
-7.80476e-10
7.63718e-10
0.0168047
-5.93968e-09
-3.09466e-09
8.12283e-10
-6.52689e-10
0.247781
9.96691e-09
3.01429e-09
0.247781
-1.10003e-08
-4.0906e-09
0.247781
-1.02308e-08
-2.86464e-09
1.07053e-08
4.67794e-09
2.94276
-9.17918e-09
2.94276
1.47964e-09
2.94276
9.82951e-09
-2.92231e-09
7.63955e-09
8.34125e-12
3.56294e-13
7.62568e-09
1.42929e-11
2.68292e-13
7.6343e-09
-8.98663e-12
-1.46704e-12
-1.29104e-11
-1.28438e-12
1.58741e-07
4.6058e-11
6.47489e-12
1.58685e-07
7.23667e-11
5.63965e-12
1.58719e-07
-4.38707e-11
-6.65087e-12
-7.0151e-11
-5.97057e-12
3.05919e-06
2.09239e-10
3.68188e-11
3.05893e-06
3.44588e-10
3.11554e-11
3.05907e-06
-2.01395e-10
-3.91137e-11
-3.453e-10
-3.3143e-11
5.70313e-05
7.37779e-10
1.89865e-10
5.70304e-05
1.39864e-09
1.41935e-10
5.70308e-05
-6.91584e-10
-2.07387e-10
-1.3618e-09
-1.65374e-10
0.0010144
2.14714e-09
5.76888e-10
0.0010144
3.46763e-09
3.66702e-10
0.0010144
-2.02377e-09
-8.22353e-10
-3.30142e-09
-6.36147e-10
0.0168044
5.70003e-09
1.17131e-09
0.0168044
-4.65579e-10
4.07109e-10
0.0168044
-5.54248e-09
-1.05383e-09
4.57537e-10
-3.68517e-10
0.247781
8.03202e-09
-6.64359e-09
0.247781
-8.95192e-09
-1.17656e-09
0.247781
-8.15905e-09
7.60685e-09
8.96649e-09
1.21223e-09
2.94276
-2.22361e-08
2.94276
1.30583e-09
2.94276
2.22807e-08
-2.25513e-09
7.62229e-09
9.5251e-12
7.60777e-09
1.47786e-11
7.61744e-09
-1.10701e-11
-1.50166e-11
1.58548e-07
5.45731e-11
1.5849e-07
7.90088e-11
1.58527e-07
-5.31349e-11
-7.81601e-11
3.05748e-06
2.4365e-10
3.05723e-06
3.72143e-10
3.05737e-06
-2.31778e-10
-3.64839e-10
5.70192e-05
7.99134e-10
5.70184e-05
1.42067e-09
5.70187e-05
-7.58101e-10
-1.3912e-09
0.00101434
1.76626e-09
0.00101434
3.26453e-09
0.00101434
-1.83112e-09
-3.30597e-09
0.0168042
4.27276e-09
0.0168042
-8.98236e-10
0.0168042
-4.09358e-09
6.35306e-10
0.24778
6.93104e-09
0.24778
-9.53976e-09
0.24778
-6.62307e-09
9.48385e-09
2.94276
2.94276
2.94276
)
;

boundaryField
{
    movingWall
    {
        type            calculated;
        value           uniform 0;
    }
    CPLReceiveMD
    {
        type            calculated;
        value           uniform 0;
    }
    streamwiseIn
    {
        type            cyclic;
        value           nonuniform List<scalar> 0();
    }
    streamwiseOut
    {
        type            cyclic;
        value           nonuniform List<scalar> 0();
    }
    front
    {
        type            cyclic;
        value           nonuniform List<scalar> 
32
(
-5.52281e-13
-6.48626e-13
-4.13423e-12
-3.33689e-11
-2.56961e-10
-1.92684e-09
-8.33436e-09
-3.01139e-08
5.84633e-15
-5.6468e-13
-3.70416e-12
-2.07052e-11
-6.00509e-11
-5.47801e-12
5.43274e-09
1.62874e-08
-7.16613e-14
-1.53254e-12
-6.54348e-12
-9.06921e-12
1.12471e-10
2.10237e-09
9.30479e-09
2.88681e-08
-9.11967e-14
-1.24182e-12
-6.96786e-12
-2.91681e-11
-1.33608e-10
-3.6526e-11
-5.74007e-09
-1.56942e-08
)
;
    }
    back
    {
        type            cyclic;
        value           nonuniform List<scalar> 
32
(
5.52281e-13
6.48626e-13
4.13423e-12
3.33689e-11
2.56961e-10
1.92684e-09
8.33436e-09
3.01139e-08
-5.84633e-15
5.6468e-13
3.70416e-12
2.07052e-11
6.00509e-11
5.47801e-12
-5.43274e-09
-1.62874e-08
7.16613e-14
1.53254e-12
6.54348e-12
9.06921e-12
-1.12471e-10
-2.10237e-09
-9.30479e-09
-2.88681e-08
9.11967e-14
1.24182e-12
6.96786e-12
2.91681e-11
1.33608e-10
3.6526e-11
5.74007e-09
1.56942e-08
)
;
    }
    procBoundary1to0
    {
        type            processor;
        value           nonuniform List<scalar> 
64
(
-7.62956e-09
-1.58565e-07
-3.05745e-06
-5.70184e-05
-0.00101433
-0.0168042
-0.24778
-2.94276
-7.6424e-09
-1.58724e-07
-3.05891e-06
-5.70291e-05
-0.00101439
-0.0168044
-0.24778
-2.94276
-7.65989e-09
-1.58929e-07
-3.06077e-06
-5.70426e-05
-0.00101446
-0.0168046
-0.247781
-2.94276
-7.67099e-09
-1.59063e-07
-3.06197e-06
-5.70511e-05
-0.00101451
-0.0168048
-0.247781
-2.94276
-7.67281e-09
-1.59085e-07
-3.06215e-06
-5.70521e-05
-0.00101451
-0.0168048
-0.247781
-2.94276
-7.66415e-09
-1.5898e-07
-3.06119e-06
-5.70451e-05
-0.00101447
-0.0168047
-0.247781
-2.94276
-7.64734e-09
-1.58776e-07
-3.05934e-06
-5.70318e-05
-0.0010144
-0.0168044
-0.247781
-2.94276
-7.63095e-09
-1.58586e-07
-3.05763e-06
-5.70196e-05
-0.00101434
-0.0168042
-0.24778
-2.94276
)
;
    }
    procBoundary1to0throughstreamwiseOut
    {
        type            processorCyclic;
        value           nonuniform List<scalar> 
64
(
7.6301e-09
1.58564e-07
3.05745e-06
5.70184e-05
0.00101433
0.0168042
0.24778
2.94276
7.64278e-09
1.58723e-07
3.05891e-06
5.70291e-05
0.00101439
0.0168044
0.24778
2.94276
7.65967e-09
1.58928e-07
3.06077e-06
5.70426e-05
0.00101446
0.0168046
0.247781
2.94276
7.67117e-09
1.59063e-07
3.06197e-06
5.70511e-05
0.00101451
0.0168048
0.247781
2.94276
7.67312e-09
1.59085e-07
3.06215e-06
5.70521e-05
0.00101451
0.0168048
0.247781
2.94276
7.66436e-09
1.5898e-07
3.06119e-06
5.70451e-05
0.00101447
0.0168047
0.247781
2.94276
7.6471e-09
1.58775e-07
3.05934e-06
5.70318e-05
0.0010144
0.0168044
0.247781
2.94276
7.63127e-09
1.58585e-07
3.05763e-06
5.70196e-05
0.00101434
0.0168042
0.24778
2.94276
)
;
    }
}


// ************************************************************************* //
