/*--------------------------------*- C++ -*----------------------------------*\
| =========                 |                                                 |
| \\      /  F ield         | OpenFOAM: The Open Source CFD Toolbox           |
|  \\    /   O peration     | Version:  2112                                  |
|   \\  /    A nd           | Website:  www.openfoam.com                      |
|    \\/     M anipulation  |                                                 |
\*---------------------------------------------------------------------------*/
FoamFile
{
    version     2.0;
    format      ascii;
    arch        "LSB;label=32;scalar=64";
    class       volScalarField;
    location    "2";
    object      p;
}
// * * * * * * * * * * * * * * * * * * * * * * * * * * * * * * * * * * * * * //

dimensions      [0 2 -2 0 0 0 0];

internalField   nonuniform List<scalar> 
256
(
-2.47755e-12
-3.02516e-12
-5.3586e-13
-1.00116e-13
4.56002e-11
4.49656e-11
5.66008e-11
5.73337e-11
2.29845e-10
2.23573e-10
2.8388e-10
2.90887e-10
5.77217e-10
5.06538e-10
7.75221e-10
8.47477e-10
1.69759e-10
-1.9203e-10
8.22336e-10
1.1789e-09
-3.80546e-09
-4.71315e-09
-2.02458e-09
-1.20121e-09
-1.12404e-08
-1.75957e-08
-7.62288e-09
-1.42785e-09
-1.80756e-08
-1.14364e-08
-1.00048e-08
-1.60382e-08
-1.12145e-12
-1.61055e-12
6.33832e-13
1.02399e-12
5.47869e-11
5.38213e-11
6.44047e-11
6.53581e-11
2.62672e-10
2.52692e-10
3.07473e-10
3.17482e-10
6.23684e-10
5.28603e-10
7.77604e-10
8.72076e-10
7.39107e-11
-3.37625e-10
5.23389e-10
9.34264e-10
-4.49729e-09
-5.76884e-09
-2.9466e-09
-1.69269e-09
-1.14778e-08
-1.65578e-08
-9.93465e-09
-4.9883e-09
-2.28705e-08
-1.24824e-08
-8.59619e-09
-1.8639e-08
1.61233e-13
-2.16085e-13
1.72379e-12
2.04099e-12
6.46511e-11
6.35953e-11
7.28293e-11
7.3844e-11
2.9688e-10
2.84076e-10
3.32237e-10
3.45101e-10
6.57118e-10
5.43871e-10
7.61369e-10
8.76245e-10
-1.19001e-10
-6.23417e-10
1.49369e-10
6.64413e-10
-4.93224e-09
-6.22478e-09
-4.10372e-09
-2.77946e-09
-1.15527e-08
-1.88485e-08
-1.02289e-08
-2.91496e-09
-1.8238e-08
-1.26146e-08
-9.71708e-09
-1.57264e-08
7.12535e-13
4.00748e-13
2.13707e-12
2.41467e-12
6.98516e-11
6.88656e-11
7.71232e-11
7.808e-11
3.13839e-10
3.00165e-10
3.43689e-10
3.57292e-10
6.5674e-10
5.36057e-10
7.36863e-10
8.58381e-10
-2.93774e-10
-8.00903e-10
-8.95786e-11
4.22989e-10
-5.20284e-09
-6.49542e-09
-4.40309e-09
-3.10785e-09
-1.05026e-08
-1.64984e-08
-8.73214e-09
-2.71139e-09
-1.93168e-08
-6.08859e-09
-5.60773e-11
-1.32019e-08
3.14167e-13
2.09872e-14
1.77334e-12
2.03993e-12
6.87166e-11
6.7933e-11
7.6203e-11
7.69841e-11
3.08858e-10
2.96493e-10
3.40139e-10
3.52526e-10
6.26766e-10
5.12788e-10
7.17706e-10
8.32501e-10
-3.90669e-10
-8.54418e-10
-1.20608e-10
3.46802e-10
-5.07834e-09
-6.32532e-09
-3.99337e-09
-2.75923e-09
-9.46667e-09
-1.45635e-08
-5.58828e-09
-5.54731e-10
-1.38453e-08
-3.65024e-09
3.62689e-09
-6.46154e-09
-8.71585e-13
-1.19623e-12
7.98753e-13
1.09408e-12
6.17828e-11
6.12032e-11
7.05219e-11
7.11503e-11
2.84944e-10
2.75125e-10
3.23797e-10
3.33851e-10
5.87393e-10
4.91736e-10
7.15926e-10
8.12229e-10
-3.34469e-10
-7.54546e-10
6.81014e-11
4.81899e-10
-4.76584e-09
-5.4995e-09
-3.0013e-09
-2.31476e-09
-7.90283e-09
-1.24815e-08
-4.14376e-09
3.16355e-10
-1.48529e-08
3.75282e-09
8.03424e-09
-1.0383e-08
-2.26743e-12
-2.69114e-12
-3.60173e-13
-2.06713e-15
5.17376e-11
5.12307e-11
6.20426e-11
6.25724e-11
2.50929e-10
2.44152e-10
2.99562e-10
3.06545e-10
5.5855e-10
4.80058e-10
7.31715e-10
8.10636e-10
-1.56896e-10
-4.74209e-10
4.54129e-10
7.67558e-10
-4.13656e-09
-4.92768e-09
-2.19259e-09
-1.38137e-09
-9.33648e-09
-1.32755e-08
-3.11979e-09
9.81217e-10
-1.38709e-08
-3.3112e-09
2.99574e-09
-7.81218e-09
-2.97311e-12
-3.51033e-12
-9.79505e-13
-5.73519e-13
4.43874e-11
4.3836e-11
5.56257e-11
5.60838e-11
2.25967e-10
2.20287e-10
2.80838e-10
2.85972e-10
5.50379e-10
4.84585e-10
7.60843e-10
8.24298e-10
9.623e-11
-2.07972e-10
7.69962e-10
1.07346e-09
-4.00502e-09
-4.6652e-09
-1.48454e-09
-7.18933e-10
-9.49327e-09
-1.30209e-08
-6.01084e-09
-2.21113e-09
-1.86366e-08
-3.47059e-09
-7.47429e-10
-1.6614e-08
)
;

boundaryField
{
    movingWall
    {
        type            zeroGradient;
    }
    CPLReceiveMD
    {
        type            zeroGradient;
    }
    streamwiseIn
    {
        type            cyclic;
    }
    streamwiseOut
    {
        type            cyclic;
    }
    front
    {
        type            cyclic;
    }
    back
    {
        type            cyclic;
    }
    procBoundary1to0
    {
        type            processor;
        value           nonuniform List<scalar> 
64
(
2.99111e-13
5.74387e-11
2.90904e-10
8.47484e-10
1.17891e-09
-1.20121e-09
-1.42785e-09
-1.60382e-08
1.35033e-12
6.54438e-11
3.17496e-10
8.72081e-10
9.34267e-10
-1.69269e-09
-4.9883e-09
-1.8639e-08
2.23026e-12
7.39019e-11
3.45113e-10
8.76249e-10
6.64416e-10
-2.77946e-09
-2.91496e-09
-1.57264e-08
2.51454e-12
7.81197e-11
3.57302e-10
8.58385e-10
4.22991e-10
-3.10785e-09
-2.71139e-09
-1.32019e-08
2.11918e-12
7.70188e-11
3.52536e-10
8.32505e-10
3.46804e-10
-2.75923e-09
-5.54731e-10
-6.46154e-09
1.20923e-12
7.11934e-11
3.33861e-10
8.12234e-10
4.81901e-10
-2.31476e-09
3.16356e-10
-1.0383e-08
2.25332e-13
6.26381e-11
3.06558e-10
8.10641e-10
7.67561e-10
-1.38137e-09
9.81217e-10
-7.81218e-09
-1.96067e-13
5.61813e-11
2.85988e-10
8.24305e-10
1.07347e-09
-7.18931e-10
-2.21113e-09
-1.6614e-08
)
;
    }
    procBoundary1to0throughstreamwiseOut
    {
        type            processorCyclic;
        value           nonuniform List<scalar> 
64
(
-2.53467e-12
4.55829e-11
2.29837e-10
5.77211e-10
1.69755e-10
-3.80546e-09
-1.12404e-08
-1.80756e-08
-1.15603e-12
5.47754e-11
2.62666e-10
6.23679e-10
7.39075e-11
-4.49729e-09
-1.14778e-08
-2.28704e-08
1.50588e-13
6.46441e-11
2.96875e-10
6.57114e-10
-1.19004e-10
-4.93224e-09
-1.15527e-08
-1.8238e-08
7.1245e-13
6.9847e-11
3.13834e-10
6.56736e-10
-2.93776e-10
-5.20284e-09
-1.05026e-08
-1.93168e-08
3.16781e-13
6.87128e-11
3.08853e-10
6.26762e-10
-3.90672e-10
-5.07834e-09
-9.46667e-09
-1.38453e-08
-8.68845e-13
6.17786e-11
2.84939e-10
5.87389e-10
-3.34472e-10
-4.76584e-09
-7.90283e-09
-1.48529e-08
-2.27074e-12
5.17314e-11
2.50922e-10
5.58544e-10
-1.56899e-10
-4.13656e-09
-9.33648e-09
-1.38709e-08
-2.9942e-12
4.43771e-11
2.25959e-10
5.50373e-10
9.62258e-11
-4.00502e-09
-9.49327e-09
-1.86366e-08
)
;
    }
}


// ************************************************************************* //
