/*--------------------------------*- C++ -*----------------------------------*\
| =========                 |                                                 |
| \\      /  F ield         | OpenFOAM: The Open Source CFD Toolbox           |
|  \\    /   O peration     | Version:  2112                                  |
|   \\  /    A nd           | Website:  www.openfoam.com                      |
|    \\/     M anipulation  |                                                 |
\*---------------------------------------------------------------------------*/
FoamFile
{
    version     2.0;
    format      ascii;
    arch        "LSB;label=32;scalar=64";
    class       volScalarField;
    location    "4";
    object      p;
}
// * * * * * * * * * * * * * * * * * * * * * * * * * * * * * * * * * * * * * //

dimensions      [0 2 -2 0 0 0 0];

internalField   nonuniform List<scalar> 
256
(
-1.28482e-11
-1.01434e-11
1.84941e-15
-1.05351e-13
-2.9239e-10
-2.9434e-10
-2.59919e-10
-2.58918e-10
-1.09309e-09
-1.07799e-09
-9.46073e-10
-9.59802e-10
-2.58069e-09
-2.47484e-09
-2.02916e-09
-2.12943e-09
-3.77316e-09
-3.53379e-09
-2.16361e-09
-2.44e-09
-1.84288e-09
-1.7997e-09
2.53298e-09
2.1192e-09
7.53294e-09
9.373e-09
1.37626e-08
1.13506e-08
3.55947e-08
2.82001e-08
2.49938e-08
3.36777e-08
-1.98056e-11
-1.77359e-11
-8.02806e-12
-8.94882e-12
-3.04384e-10
-3.0612e-10
-2.76723e-10
-2.76836e-10
-1.12477e-09
-1.11162e-09
-1.00296e-09
-1.01788e-09
-2.66171e-09
-2.58105e-09
-2.22924e-09
-2.31117e-09
-3.81655e-09
-3.63939e-09
-2.60305e-09
-2.7178e-09
-7.11915e-10
-2.71847e-10
2.19658e-09
2.13697e-09
9.86674e-09
1.18546e-08
1.58915e-08
1.45934e-08
4.06731e-08
3.82165e-08
2.42783e-08
2.69073e-08
-2.82588e-11
-2.82514e-11
-2.17129e-11
-2.14429e-11
-3.18792e-10
-3.20591e-10
-2.99798e-10
-3.00234e-10
-1.15149e-09
-1.13865e-09
-1.0703e-09
-1.08308e-09
-2.63098e-09
-2.57214e-09
-2.36724e-09
-2.42753e-09
-3.19619e-09
-3.12127e-09
-2.56845e-09
-2.63453e-09
1.74915e-09
1.8731e-09
3.21477e-09
3.20348e-09
1.35297e-08
1.59725e-08
1.30894e-08
1.09473e-08
2.81574e-08
1.75004e-08
1.50758e-08
2.53034e-08
-3.34381e-11
-3.45676e-11
-3.06092e-11
-2.91709e-11
-3.2743e-10
-3.29925e-10
-3.15853e-10
-3.15856e-10
-1.15628e-09
-1.1463e-09
-1.10844e-09
-1.11885e-09
-2.51343e-09
-2.46656e-09
-2.37898e-09
-2.42871e-09
-2.38963e-09
-2.34207e-09
-2.18718e-09
-2.26417e-09
4.19008e-09
4.34731e-09
4.01753e-09
3.65337e-09
1.2544e-08
1.38822e-08
1.00597e-08
8.26574e-09
1.68868e-08
2.54032e-09
-6.54196e-09
7.99536e-09
-3.45967e-11
-3.61983e-11
-3.26455e-11
-3.0896e-11
-3.29243e-10
-3.32685e-10
-3.19451e-10
-3.18611e-10
-1.14549e-09
-1.13814e-09
-1.10276e-09
-1.11074e-09
-2.38345e-09
-2.33285e-09
-2.24984e-09
-2.30372e-09
-1.81636e-09
-1.6883e-09
-1.5566e-09
-1.70926e-09
4.96699e-09
5.39808e-09
4.84932e-09
4.23035e-09
9.60398e-09
1.03508e-08
5.89203e-09
4.7003e-09
5.95946e-09
-1.20735e-08
-2.35588e-08
-5.00277e-09
-3.1241e-11
-3.30116e-11
-2.83305e-11
-2.64061e-11
-3.23149e-10
-3.27226e-10
-3.08521e-10
-3.06948e-10
-1.12436e-09
-1.11763e-09
-1.05505e-09
-1.06233e-09
-2.30985e-09
-2.23492e-09
-2.03862e-09
-2.11436e-09
-1.76849e-09
-1.45163e-09
-9.67478e-10
-1.24059e-09
3.7807e-09
4.69447e-09
5.3866e-09
4.72083e-09
6.3474e-09
7.86019e-09
2.99918e-09
1.93061e-09
-2.84658e-09
-1.63769e-08
-2.36938e-08
-9.92925e-09
-2.34991e-11
-2.46435e-11
-1.70937e-11
-1.60471e-11
-3.08893e-10
-3.12943e-10
-2.85826e-10
-2.83804e-10
-1.09712e-09
-1.08916e-09
-9.85011e-10
-9.96128e-10
-2.32487e-09
-2.22511e-09
-1.87244e-09
-1.98107e-09
-2.26566e-09
-1.87009e-09
-8.66543e-10
-1.21077e-09
1.70723e-09
2.64407e-09
4.7351e-09
4.21733e-09
2.85371e-09
3.76533e-09
6.01641e-09
5.7832e-09
1.0587e-08
-6.73475e-09
-1.75993e-08
-1.56199e-09
-1.52056e-11
-1.3958e-11
-3.5749e-12
-3.94935e-12
-2.94582e-10
-2.97386e-10
-2.64118e-10
-2.61778e-10
-1.08195e-09
-1.06859e-09
-9.3887e-10
-9.49332e-10
-2.4349e-09
-2.3223e-09
-1.87611e-09
-1.98467e-09
-3.09421e-09
-2.76411e-09
-1.38419e-09
-1.78317e-09
-7.37229e-10
-1.75751e-10
3.77571e-09
2.82454e-09
4.47938e-09
5.64853e-09
1.00642e-08
8.24668e-09
2.24851e-08
1.95528e-08
8.07019e-09
1.03309e-08
)
;

boundaryField
{
    movingWall
    {
        type            zeroGradient;
    }
    CPLReceiveMD
    {
        type            zeroGradient;
    }
    streamwiseIn
    {
        type            cyclic;
    }
    streamwiseOut
    {
        type            cyclic;
    }
    front
    {
        type            cyclic;
    }
    back
    {
        type            cyclic;
    }
    procBoundary0to1
    {
        type            processor;
        value           nonuniform List<scalar> 
64
(
-1.36004e-11
-2.92594e-10
-1.09312e-09
-2.5807e-09
-3.77316e-09
-1.84289e-09
7.53294e-09
3.55947e-08
-2.03096e-11
-3.04532e-10
-1.12479e-09
-2.66172e-09
-3.81656e-09
-7.11917e-10
9.86674e-09
4.06731e-08
-2.85049e-11
-3.18884e-10
-1.15151e-09
-2.63098e-09
-3.19619e-09
1.74915e-09
1.35297e-08
2.81574e-08
-3.35977e-11
-3.27505e-10
-1.1563e-09
-2.51343e-09
-2.38963e-09
4.19008e-09
1.2544e-08
1.68868e-08
-3.47962e-11
-3.29328e-10
-1.1455e-09
-2.38345e-09
-1.81636e-09
4.96699e-09
9.60398e-09
5.95946e-09
-3.15449e-11
-3.23258e-10
-1.12438e-09
-2.30986e-09
-1.76849e-09
3.7807e-09
6.3474e-09
-2.84657e-09
-2.39708e-11
-3.09036e-10
-1.09714e-09
-2.32488e-09
-2.26567e-09
1.70723e-09
2.85371e-09
1.0587e-08
-1.5864e-11
-2.94754e-10
-1.08196e-09
-2.43491e-09
-3.09421e-09
-7.3723e-10
4.47938e-09
2.24851e-08
)
;
    }
    procBoundary0to1throughstreamwiseIn
    {
        type            processorCyclic;
        value           nonuniform List<scalar> 
64
(
-7.92273e-12
-2.6e-10
-9.59785e-10
-2.1294e-09
-2.43999e-09
2.11921e-09
1.13506e-08
3.36777e-08
-1.48199e-11
-2.77715e-10
-1.01789e-09
-2.31115e-09
-2.71779e-09
2.13697e-09
1.45934e-08
2.69073e-08
-2.39714e-11
-3.0076e-10
-1.0831e-09
-2.42751e-09
-2.63452e-09
3.20348e-09
1.09473e-08
2.53034e-08
-3.01031e-11
-3.16126e-10
-1.11886e-09
-2.42869e-09
-2.26416e-09
3.65337e-09
8.26574e-09
7.99536e-09
-3.1351e-11
-3.18772e-10
-1.11074e-09
-2.30371e-09
-1.70926e-09
4.23035e-09
4.7003e-09
-5.00277e-09
-2.70115e-11
-3.07123e-10
-1.06232e-09
-2.11435e-09
-1.24059e-09
4.72083e-09
1.93061e-09
-9.92926e-09
-1.78962e-11
-2.8414e-10
-9.96121e-10
-1.98105e-09
-1.21077e-09
4.21733e-09
5.7832e-09
-1.56199e-09
-9.12132e-12
-2.62491e-10
-9.49311e-10
-1.98464e-09
-1.78316e-09
2.82454e-09
8.24668e-09
1.03309e-08
)
;
    }
}


// ************************************************************************* //
