/*--------------------------------*- C++ -*----------------------------------*\
| =========                 |                                                 |
| \\      /  F ield         | OpenFOAM: The Open Source CFD Toolbox           |
|  \\    /   O peration     | Version:  2112                                  |
|   \\  /    A nd           | Website:  www.openfoam.com                      |
|    \\/     M anipulation  |                                                 |
\*---------------------------------------------------------------------------*/
FoamFile
{
    version     2.0;
    format      ascii;
    arch        "LSB;label=32;scalar=64";
    class       volScalarField;
    location    "1";
    object      p;
}
// * * * * * * * * * * * * * * * * * * * * * * * * * * * * * * * * * * * * * //

dimensions      [0 2 -2 0 0 0 0];

internalField   nonuniform List<scalar> 
256
(
-1.47387e-12
-1.56786e-12
-2.93144e-13
-2.58939e-13
-6.98987e-13
-6.1365e-13
4.52428e-12
4.44411e-12
4.23023e-12
4.59868e-12
2.65877e-11
2.6175e-11
1.93485e-11
2.07796e-11
1.00609e-10
9.85931e-11
5.158e-11
3.16093e-11
2.82135e-10
3.01209e-10
3.13763e-11
1.11353e-10
6.836e-10
6.03425e-10
7.59374e-10
-1.86e-10
3.90895e-10
1.32537e-09
2.72289e-12
5.00329e-10
1.23764e-09
7.42e-10
-1.40298e-12
-1.47121e-12
-3.2281e-13
-3.02808e-13
-3.55322e-13
-2.79215e-13
4.31821e-12
4.22605e-12
5.1913e-12
5.74354e-12
2.53287e-11
2.47206e-11
2.29818e-11
2.38678e-11
9.57366e-11
9.45814e-11
5.74128e-11
6.90175e-11
2.84038e-10
2.72674e-10
1.3272e-10
7.40978e-11
6.38954e-10
7.01077e-10
1.5635e-10
7.50515e-10
1.14634e-09
5.52834e-10
5.77721e-10
2.54962e-10
9.13207e-10
1.23722e-09
-1.3022e-12
-1.34293e-12
-3.78804e-13
-3.61955e-13
4.95477e-13
5.20471e-13
4.34732e-12
4.32288e-12
8.79597e-12
8.88254e-12
2.51875e-11
2.51807e-11
3.33088e-11
3.2648e-11
9.18941e-11
9.29436e-11
8.22566e-11
7.11278e-11
2.53452e-10
2.64636e-10
1.37034e-10
1.35234e-10
5.65951e-10
5.65395e-10
5.54712e-10
3.68059e-11
5.94987e-10
1.11778e-09
2.31337e-10
6.27094e-10
1.17207e-09
7.7542e-10
-1.22334e-12
-1.2596e-12
-4.27616e-13
-4.0431e-13
1.38802e-12
1.32284e-12
4.60785e-12
4.66409e-12
1.30347e-11
1.24059e-11
2.64765e-11
2.7112e-11
4.52208e-11
4.06189e-11
9.1981e-11
9.67398e-11
9.56663e-11
7.40182e-11
2.27081e-10
2.49032e-10
9.32345e-11
2.19253e-11
4.55069e-10
5.2537e-10
1.95469e-10
1.55101e-10
5.85448e-10
6.24712e-10
4.40342e-10
1.17048e-10
5.79394e-10
9.00511e-10
-1.22012e-12
-1.26311e-12
-4.36072e-13
-4.01533e-13
1.85056e-12
1.71636e-12
5.00203e-12
5.13023e-12
1.56188e-11
1.44365e-11
2.85947e-11
2.9767e-11
5.24929e-11
4.39454e-11
9.55821e-11
1.041e-10
9.71398e-11
5.60328e-11
2.13985e-10
2.54711e-10
4.24586e-11
-8.02624e-11
3.54816e-10
4.76738e-10
2.89167e-10
-4.25312e-10
9.76717e-11
8.10171e-10
3.03211e-11
6.00986e-11
5.25085e-10
4.93901e-10
-1.29704e-12
-1.35398e-12
-4.00199e-13
-3.53917e-13
1.63325e-12
1.46741e-12
5.28575e-12
5.45063e-12
1.51498e-11
1.3764e-11
3.01398e-11
3.15165e-11
5.06539e-11
4.03572e-11
1.00128e-10
1.10214e-10
8.1423e-11
4.22894e-11
2.22739e-10
2.60721e-10
2.64733e-11
-1.5815e-10
3.08045e-10
4.90763e-10
-9.91478e-11
-1.68379e-10
3.05466e-10
3.72689e-10
1.97659e-10
-4.57829e-10
9.74763e-11
7.49937e-10
-1.40832e-12
-1.48323e-12
-3.4266e-13
-2.91778e-13
7.9867e-13
6.7081e-13
5.23775e-12
5.35574e-12
1.15492e-11
1.04876e-11
3.004e-11
3.10862e-11
3.90527e-11
3.23212e-11
1.03245e-10
1.10097e-10
6.51505e-11
1.57352e-11
2.37949e-10
2.88583e-10
-6.7846e-11
-1.11232e-10
4.6175e-10
5.08543e-10
4.77492e-10
-6.51221e-10
-1.25697e-10
1.01083e-09
-1.95022e-10
-6.64928e-11
5.89399e-10
4.6141e-10
-1.4799e-12
-1.57377e-12
-2.97139e-13
-2.53011e-13
-1.95996e-13
-2.29487e-13
4.90348e-12
4.91509e-12
6.75719e-12
6.6698e-12
2.85809e-11
2.86796e-11
2.66599e-11
2.21528e-11
1.02235e-10
1.07006e-10
3.82997e-11
3.33871e-11
2.77022e-10
2.82314e-10
6.58347e-11
-1.09853e-10
4.88762e-10
6.63701e-10
-1.29631e-10
4.38162e-10
8.78079e-10
3.12966e-10
3.47385e-10
-3.07546e-10
4.4045e-10
1.09964e-09
)
;

boundaryField
{
    movingWall
    {
        type            zeroGradient;
    }
    CPLReceiveMD
    {
        type            zeroGradient;
    }
    streamwiseIn
    {
        type            cyclic;
    }
    streamwiseOut
    {
        type            cyclic;
    }
    front
    {
        type            cyclic;
    }
    back
    {
        type            cyclic;
    }
    procBoundary1to0
    {
        type            processor;
        value           nonuniform List<scalar> 
64
(
-4.41704e-14
4.49032e-12
2.61768e-11
9.85928e-11
3.01209e-10
6.03425e-10
1.32537e-09
7.42e-10
-1.35825e-13
4.26415e-12
2.47227e-11
9.45813e-11
2.72674e-10
7.01077e-10
5.52834e-10
1.23722e-09
-2.75721e-13
4.34722e-12
2.51829e-11
9.29436e-11
2.64636e-10
5.65395e-10
1.11778e-09
7.75421e-10
-3.63945e-13
4.67939e-12
2.71138e-11
9.67399e-11
2.49032e-10
5.2537e-10
6.24712e-10
9.00511e-10
-3.72469e-13
5.14283e-12
2.97687e-11
1.041e-10
2.54711e-10
4.76738e-10
8.10171e-10
4.93901e-10
-3.1195e-13
5.46647e-12
3.15184e-11
1.10214e-10
2.60721e-10
4.90763e-10
3.72689e-10
7.49939e-10
-2.02332e-13
5.38108e-12
3.10886e-11
1.10097e-10
2.88583e-10
5.08543e-10
1.01083e-09
4.6141e-10
-8.31194e-14
4.95442e-12
2.86823e-11
1.07006e-10
2.82314e-10
6.63701e-10
3.12966e-10
1.09964e-09
)
;
    }
    procBoundary1to0throughstreamwiseOut
    {
        type            processorCyclic;
        value           nonuniform List<scalar> 
64
(
-1.4755e-12
-6.98814e-13
4.23041e-12
1.93483e-11
5.15799e-11
3.13762e-11
7.59374e-10
2.72533e-12
-1.40366e-12
-3.54812e-13
5.19166e-12
2.29818e-11
5.74128e-11
1.3272e-10
1.5635e-10
5.77722e-10
-1.30106e-12
4.96297e-13
8.79634e-12
3.33088e-11
8.22566e-11
1.37034e-10
5.54712e-10
2.31336e-10
-1.22124e-12
1.38908e-12
1.30351e-11
4.52209e-11
9.56663e-11
9.32345e-11
1.95469e-10
4.40341e-10
-1.21798e-12
1.85171e-12
1.56192e-11
5.24929e-11
9.71397e-11
4.24585e-11
2.89167e-10
3.03218e-11
-1.29541e-12
1.6344e-12
1.51503e-11
5.0654e-11
8.1423e-11
2.64733e-11
-9.91478e-11
1.9766e-10
-1.40788e-12
7.99804e-13
1.155e-11
3.90529e-11
6.51504e-11
-6.78461e-11
4.77492e-10
-1.95022e-10
-1.48142e-12
-1.94906e-13
6.75815e-12
2.66602e-11
3.82997e-11
6.58347e-11
-1.29631e-10
3.47384e-10
)
;
    }
}


// ************************************************************************* //
