/*--------------------------------*- C++ -*----------------------------------*\
| =========                 |                                                 |
| \\      /  F ield         | OpenFOAM: The Open Source CFD Toolbox           |
|  \\    /   O peration     | Version:  2112                                  |
|   \\  /    A nd           | Website:  www.openfoam.com                      |
|    \\/     M anipulation  |                                                 |
\*---------------------------------------------------------------------------*/
FoamFile
{
    version     2.0;
    format      ascii;
    arch        "LSB;label=32;scalar=64";
    class       surfaceScalarField;
    location    "1";
    object      phi;
}
// * * * * * * * * * * * * * * * * * * * * * * * * * * * * * * * * * * * * * //

dimensions      [0 3 -1 0 0 0 0];

oriented        oriented;

internalField   nonuniform List<scalar> 
640
(
5.76938e-10
4.32806e-12
-3.45236e-13
5.72869e-10
4.42521e-12
-3.86751e-13
5.76783e-10
-4.36973e-12
3.68301e-13
-4.55917e-12
4.20897e-13
1.29494e-08
2.20578e-11
-2.22528e-12
1.29341e-08
2.23889e-11
-2.4458e-12
1.29486e-08
-2.14437e-11
2.42833e-12
-2.22523e-11
2.76789e-12
2.73813e-07
8.16746e-11
-1.30261e-11
2.73767e-07
8.38279e-11
-1.53937e-11
2.73809e-07
-7.81815e-11
1.41069e-11
-8.15541e-11
1.69994e-11
5.74439e-06
1.99598e-10
-6.49045e-11
5.74434e-06
1.92727e-10
-7.65554e-11
5.74438e-06
-1.91549e-10
6.69815e-11
-1.85188e-10
8.03467e-11
0.000120032
1.54379e-10
-1.91897e-10
0.000120032
2.91162e-10
-3.32162e-10
0.000120032
-1.46163e-10
1.89805e-10
-2.8912e-10
3.3457e-10
0.00250429
-6.07037e-11
-3.66814e-10
0.00250429
3.0892e-10
-3.4272e-10
0.00250428
4.71263e-11
3.6068e-10
-3.2536e-10
3.37563e-10
0.0522275
5.88295e-10
2.14352e-09
0.0522275
-2.14849e-10
-2.5948e-09
0.0522275
-5.70397e-10
-2.15873e-09
2.35895e-10
2.61182e-09
1.08916
-7.97686e-10
1.08916
-4.6645e-10
1.08916
8.06496e-10
4.57664e-10
5.82381e-10
3.73466e-12
-5.27429e-13
5.78706e-10
3.80554e-12
-5.1808e-13
5.82272e-10
-3.80085e-12
6.0268e-13
-3.8473e-12
5.87766e-13
1.30127e-08
1.89017e-11
-3.81385e-12
1.29986e-08
1.90744e-11
-3.65568e-12
1.30122e-08
-1.84661e-11
3.50083e-12
-1.84664e-11
3.3703e-12
2.74377e-07
7.1043e-11
-2.30484e-11
2.74332e-07
7.00006e-11
-2.16744e-11
2.74374e-07
-6.79047e-11
2.11895e-11
-6.59522e-11
2.008e-11
5.74818e-06
1.77185e-10
-1.10586e-10
5.7481e-06
1.76231e-10
-1.01526e-10
5.74816e-06
-1.69398e-10
1.06864e-10
-1.64838e-10
9.91251e-11
0.000120049
2.77707e-10
-3.80158e-10
0.000120049
1.47261e-10
-2.85559e-10
0.000120049
-2.73491e-10
3.82662e-10
-1.39028e-10
2.90104e-10
0.00250432
2.61449e-10
-6.9087e-10
0.00250432
-1.15898e-10
-4.87643e-10
0.00250432
-2.77687e-10
7.20178e-10
1.01519e-10
4.90114e-10
0.0522275
3.50842e-12
-1.48012e-09
0.0522275
3.29377e-10
1.87986e-09
0.0522275
1.64631e-11
1.4315e-09
-3.1098e-10
-1.89843e-09
1.08916
-3.28271e-10
1.08916
-1.42631e-09
1.08916
3.62311e-10
1.43068e-09
5.88654e-10
2.86073e-12
-3.92994e-13
5.85534e-10
2.93779e-12
-3.3673e-13
5.88532e-10
-2.88775e-12
4.91139e-13
-2.95692e-12
4.2751e-13
1.30873e-08
1.41995e-11
-3.1846e-12
1.30748e-08
1.4496e-11
-2.7392e-12
1.30867e-08
-1.38565e-11
2.54158e-12
-1.41628e-11
2.08371e-12
2.75048e-07
5.38717e-11
-1.94577e-11
2.75002e-07
5.49317e-11
-1.58346e-11
2.75045e-07
-5.12975e-11
1.57132e-11
-5.27985e-11
1.21003e-11
5.75269e-06
1.40193e-10
-9.18666e-11
5.75257e-06
1.43966e-10
-6.54422e-11
5.75267e-06
-1.32102e-10
8.42881e-11
-1.38514e-10
5.80564e-11
0.000120069
1.64144e-10
-3.13393e-10
0.000120068
2.4571e-10
-1.47705e-10
0.000120068
-1.58289e-10
3.18365e-10
-2.4e-10
1.51765e-10
0.00250436
9.02934e-11
-6.49904e-10
0.00250436
1.78649e-10
2.12963e-10
0.00250436
-9.75272e-11
6.82219e-10
-1.84679e-10
-1.88669e-10
0.0522274
3.6702e-10
-1.08574e-09
0.0522274
-2.67277e-10
8.38161e-10
0.0522274
-3.5989e-10
1.04367e-09
2.76441e-10
-8.92822e-10
1.08916
-2.36674e-09
1.08916
1.10279e-09
1.08916
2.40416e-09
-1.08551e-09
5.92512e-10
2.15777e-12
-2.98891e-14
5.89775e-10
2.37009e-12
2.98851e-14
5.92309e-10
-2.14989e-12
1.06309e-13
-2.34808e-12
4.01012e-14
1.31332e-08
1.00601e-11
-7.44632e-13
1.31217e-08
1.14614e-11
-2.86203e-13
1.31321e-08
-1.0112e-11
1.45647e-13
-1.14273e-11
-3.54272e-13
2.75458e-07
3.72467e-11
-4.68344e-12
2.75409e-07
4.61256e-11
-8.62919e-13
2.75451e-07
-3.75135e-11
1.18295e-12
-4.61019e-11
-2.89333e-12
5.75539e-06
1.02845e-10
-2.00215e-11
5.75522e-06
1.46219e-10
9.29215e-12
5.75536e-06
-1.02871e-10
1.28664e-11
-1.46022e-10
-1.75309e-11
0.00012008
1.44581e-10
-7.18142e-11
0.000120079
2.62379e-10
1.11179e-10
0.00012008
-1.41518e-10
7.49885e-11
-2.59718e-10
-1.10879e-10
0.00250437
5.25244e-11
-4.02409e-10
0.00250437
1.40739e-10
5.94396e-10
0.00250437
-4.59409e-11
4.2688e-10
-1.35606e-10
-5.68262e-10
0.0522274
-3.28943e-11
-1.60067e-09
0.0522274
3.93493e-11
1.80721e-09
0.0522274
2.59543e-11
1.56739e-09
-4.63631e-11
-1.84499e-09
1.08916
-1.03396e-09
1.08916
1.0473e-09
1.08916
1.05532e-09
-1.02791e-09
5.93245e-10
2.07379e-12
3.45967e-13
5.90485e-10
2.40837e-12
3.81484e-13
5.92943e-10
-2.00875e-12
-3.42398e-13
-2.33979e-12
-3.83126e-13
1.31417e-08
9.3258e-12
2.08578e-12
1.31297e-08
1.17348e-11
2.36213e-12
1.31398e-08
-9.63246e-12
-2.32213e-12
-1.20163e-11
-2.63901e-12
2.75526e-07
3.32551e-11
1.25103e-11
2.75472e-07
4.93868e-11
1.48142e-11
2.75514e-07
-3.57739e-11
-1.38463e-11
-5.18069e-11
-1.6398e-11
5.75574e-06
8.05349e-11
6.29852e-11
5.75555e-06
1.6949e-10
7.92348e-11
5.75568e-06
-8.7474e-11
-6.5857e-11
-1.76269e-10
-8.29955e-11
0.000120081
4.16789e-11
2.12727e-10
0.00012008
3.78508e-10
2.82916e-10
0.000120081
-4.62357e-11
-2.13574e-10
-3.82134e-10
-2.84135e-10
0.00250437
-1.04688e-10
1.78055e-10
0.00250437
3.42509e-10
5.88691e-10
0.00250437
1.17932e-10
-1.74816e-10
-3.28252e-10
-5.77021e-10
0.0522274
1.46235e-10
-6.49847e-11
0.0522274
-2.00878e-10
3.24111e-11
0.0522274
-1.65124e-10
5.5377e-11
1.81137e-10
-2.773e-11
1.08916
-7.66497e-10
1.08916
2.05388e-09
1.08916
7.63066e-10
-2.04833e-09
5.90422e-10
2.63769e-12
5.16522e-13
5.87235e-10
3.05271e-12
5.16012e-13
5.90041e-10
-2.53005e-12
-6.17267e-13
-2.96724e-12
-6.07263e-13
1.31076e-08
1.22547e-11
3.71695e-12
1.30941e-08
1.52367e-11
3.69332e-12
1.31053e-08
-1.25628e-11
-3.52044e-12
-1.57015e-11
-3.43231e-12
2.75211e-07
4.30802e-11
2.24654e-11
2.75157e-07
6.21275e-11
2.22861e-11
2.75198e-07
-4.6092e-11
-2.11438e-11
-6.59423e-11
-2.04926e-11
5.75353e-06
9.04933e-11
1.08766e-10
5.75337e-06
1.96478e-10
1.01665e-10
5.75347e-06
-9.91822e-11
-1.06872e-10
-2.07482e-10
-9.73377e-11
0.00012007
6.08165e-11
3.50408e-10
0.00012007
3.50617e-10
3.38514e-10
0.00012007
-6.77708e-11
-3.57925e-10
-3.59584e-10
-3.36835e-10
0.00250435
-4.8796e-11
8.73158e-10
0.00250435
2.70822e-10
2.49681e-10
0.00250435
6.37055e-11
-8.99946e-10
-2.5529e-10
-2.54352e-10
0.0522274
-1.73535e-10
-6.33776e-10
0.0522274
2.6036e-10
7.08754e-10
0.0522274
1.51767e-10
6.52258e-10
-2.80428e-10
-6.5988e-10
1.08916
1.88933e-09
1.08916
-1.57598e-10
1.08916
-1.92724e-09
1.55787e-10
5.84068e-10
3.50407e-12
3.89608e-13
5.80309e-10
3.93155e-12
3.44986e-13
5.83681e-10
-3.4663e-12
-5.23164e-13
-3.89405e-12
-4.65614e-13
1.30324e-08
1.68963e-11
3.27222e-12
1.30173e-08
1.9826e-11
2.84952e-12
1.30303e-08
-1.72825e-11
-2.65614e-12
-2.01402e-11
-2.21881e-12
2.74537e-07
6.00641e-11
2.01045e-11
2.74484e-07
7.86175e-11
1.6033e-11
2.74525e-07
-6.30821e-11
-1.6222e-11
-8.08003e-11
-1.23159e-11
5.74901e-06
1.38729e-10
9.09743e-11
5.7489e-06
2.17921e-10
6.85366e-11
5.74897e-06
-1.47574e-10
-8.27379e-11
-2.23411e-10
-6.14154e-11
0.000120051
2.78525e-11
3.42487e-10
0.000120051
4.26366e-10
1.02334e-10
0.000120051
-3.68919e-11
-3.44594e-10
-4.3055e-10
-1.07174e-10
0.00250432
-2.55172e-10
4.63594e-10
0.00250432
4.73956e-10
2.7073e-11
0.00250431
2.63241e-10
-4.92914e-10
-4.67134e-10
-5.7318e-11
0.0522274
3.67202e-10
3.19732e-09
0.0522274
-1.48797e-10
-3.41495e-09
0.0522274
-3.74547e-10
-3.12995e-09
1.38459e-10
3.44753e-09
1.08916
7.96434e-10
1.08916
4.87586e-10
1.08916
-8.39413e-10
-5.02005e-10
5.77599e-10
4.15279e-12
5.73469e-10
4.50395e-12
5.77294e-10
-4.26263e-12
-4.56752e-12
1.29573e-08
2.07271e-11
1.29415e-08
2.29539e-11
1.29557e-08
-2.1025e-11
-2.29765e-11
2.73878e-07
7.61164e-11
2.7383e-07
8.62697e-11
2.7387e-07
-7.66362e-11
-8.61886e-11
5.74474e-06
1.65211e-10
5.74469e-06
2.26731e-10
5.74471e-06
-1.65484e-10
-2.27191e-10
0.000120033
1.94484e-10
0.000120033
2.37626e-10
0.000120033
-1.97153e-10
-2.3762e-10
0.00250428
1.60689e-10
0.00250428
1.54151e-11
0.00250428
-1.68798e-10
-1.79666e-11
0.0522275
-1.36811e-10
0.0522275
5.53433e-10
0.0522275
1.44606e-10
-5.42726e-10
1.08916
1.08916
1.08916
)
;

boundaryField
{
    movingWall
    {
        type            calculated;
        value           uniform 0;
    }
    CPLReceiveMD
    {
        type            calculated;
        value           uniform 0;
    }
    streamwiseIn
    {
        type            cyclic;
        value           nonuniform List<scalar> 0();
    }
    streamwiseOut
    {
        type            cyclic;
        value           nonuniform List<scalar> 0();
    }
    front
    {
        type            cyclic;
        value           nonuniform List<scalar> 
32
(
4.34519e-14
8.93417e-13
5.13548e-12
2.46535e-11
5.1642e-11
5.9519e-10
-4.75551e-10
2.60739e-09
-3.08064e-14
2.2192e-13
6.32158e-13
-1.52047e-11
-6.95158e-11
-8.42441e-10
7.43347e-10
-2.6412e-09
-8.56005e-14
-1.17678e-13
-9.80412e-13
-1.55336e-11
-4.97284e-11
-6.22281e-10
5.38483e-10
-2.62471e-09
-2.02709e-14
4.22502e-13
2.92015e-12
2.17512e-11
6.2584e-11
8.17945e-10
-7.35497e-10
2.61963e-09
)
;
    }
    back
    {
        type            cyclic;
        value           nonuniform List<scalar> 
32
(
-4.34519e-14
-8.93417e-13
-5.13548e-12
-2.46535e-11
-5.1642e-11
-5.9519e-10
4.75551e-10
-2.60739e-09
3.08064e-14
-2.2192e-13
-6.32158e-13
1.52047e-11
6.95158e-11
8.42441e-10
-7.43347e-10
2.6412e-09
8.56005e-14
1.17678e-13
9.80412e-13
1.55336e-11
4.97284e-11
6.22281e-10
-5.38483e-10
2.62471e-09
2.02709e-14
-4.22502e-13
-2.92015e-12
-2.17512e-11
-6.2584e-11
-8.17945e-10
7.35497e-10
-2.61963e-09
)
;
    }
    procBoundary1to0
    {
        type            processor;
        value           nonuniform List<scalar> 
64
(
-5.80873e-10
-1.2964e-08
-2.73854e-07
-5.74442e-06
-0.000120032
-0.00250428
-0.0522275
-1.08916
-5.85935e-10
-1.30263e-08
-2.74419e-07
-5.74824e-06
-0.000120049
-0.00250432
-0.0522275
-1.08916
-5.91652e-10
-1.30992e-08
-2.75092e-07
-5.7528e-06
-0.000120069
-0.00250436
-0.0522274
-1.08916
-5.95035e-10
-1.31436e-08
-2.755e-07
-5.75553e-06
-0.00012008
-0.00250438
-0.0522274
-1.08916
-5.95695e-10
-1.31517e-08
-2.75567e-07
-5.75587e-06
-0.000120081
-0.00250437
-0.0522274
-1.08916
-5.93228e-10
-1.31189e-08
-2.75252e-07
-5.75362e-06
-0.000120071
-0.00250435
-0.0522274
-1.08916
-5.87444e-10
-1.30453e-08
-2.74578e-07
-5.74907e-06
-0.000120051
-0.00250431
-0.0522274
-1.08916
-5.81409e-10
-1.29715e-08
-2.73918e-07
-5.74477e-06
-0.000120033
-0.00250428
-0.0522275
-1.08916
)
;
    }
    procBoundary1to0throughstreamwiseOut
    {
        type            processorCyclic;
        value           nonuniform List<scalar> 
64
(
5.80891e-10
1.2964e-08
2.73854e-07
5.74442e-06
0.000120032
0.00250428
0.0522275
1.08916
5.85947e-10
1.30263e-08
2.74419e-07
5.74824e-06
0.000120049
0.00250432
0.0522275
1.08916
5.91645e-10
1.30992e-08
2.75092e-07
5.7528e-06
0.000120069
0.00250436
0.0522274
1.08916
5.95042e-10
1.31436e-08
2.755e-07
5.75553e-06
0.00012008
0.00250438
0.0522274
1.08916
5.95706e-10
1.31517e-08
2.75567e-07
5.75587e-06
0.000120081
0.00250437
0.0522274
1.08916
5.93235e-10
1.31189e-08
2.75252e-07
5.75362e-06
0.000120071
0.00250435
0.0522274
1.08916
5.87438e-10
1.30453e-08
2.74578e-07
5.74907e-06
0.000120051
0.00250431
0.0522274
1.08916
5.81424e-10
1.29714e-08
2.73918e-07
5.74477e-06
0.000120033
0.00250428
0.0522275
1.08916
)
;
    }
}


// ************************************************************************* //
