/*--------------------------------*- C++ -*----------------------------------*\
| =========                 |                                                 |
| \\      /  F ield         | OpenFOAM: The Open Source CFD Toolbox           |
|  \\    /   O peration     | Version:  2112                                  |
|   \\  /    A nd           | Website:  www.openfoam.com                      |
|    \\/     M anipulation  |                                                 |
\*---------------------------------------------------------------------------*/
FoamFile
{
    version     2.0;
    format      ascii;
    arch        "LSB;label=32;scalar=64";
    class       volVectorField;
    location    "1";
    object      U;
}
// * * * * * * * * * * * * * * * * * * * * * * * * * * * * * * * * * * * * * //

dimensions      [0 1 -1 0 0 0 0];

internalField   nonuniform List<vector> 
256
(
(4.86943e-11 2.25097e-13 -1.30276e-14)
(4.82568e-11 2.31805e-13 -1.86139e-14)
(4.82434e-11 -3.43675e-13 1.45438e-14)
(4.86854e-11 -3.53341e-13 2.01295e-14)
(1.08887e-09 1.62563e-12 -6.2967e-14)
(1.08729e-09 1.6654e-12 -1.07813e-13)
(1.0872e-09 -2.05607e-12 1.11464e-13)
(1.08879e-09 -2.12883e-12 1.54144e-13)
(2.30087e-08 8.18176e-12 -3.89611e-13)
(2.30054e-08 8.26971e-12 -7.32329e-13)
(2.30049e-08 -8.82965e-12 6.24479e-13)
(2.30084e-08 -9.08876e-12 9.48959e-13)
(4.82666e-07 2.86461e-11 -1.96517e-12)
(4.82675e-07 3.03093e-11 -4.52915e-12)
(4.82672e-07 -2.84938e-11 2.50061e-12)
(4.82665e-07 -3.0563e-11 4.98304e-12)
(1.00856e-05 6.42341e-11 -7.00549e-12)
(1.00857e-05 5.46639e-11 -1.87378e-11)
(1.00857e-05 -6.21626e-11 7.37277e-12)
(1.00856e-05 -5.24438e-11 1.94323e-11)
(0.000210421 -2.08513e-11 1.93033e-11)
(0.000210422 9.22997e-11 -5.58468e-11)
(0.000210421 2.62869e-11 -1.91846e-11)
(0.000210422 -8.94006e-11 5.99053e-11)
(0.00438839 6.767e-11 5.98017e-11)
(0.0043884 2.54858e-12 -6.45592e-11)
(0.00438839 -6.59703e-11 -4.97219e-11)
(0.0043884 -7.7607e-13 7.39109e-11)
(0.0915161 1.25109e-10 9.91664e-11)
(0.0915161 -4.48628e-11 -1.54403e-10)
(0.0915161 -1.27242e-10 -8.95881e-11)
(0.0915161 4.52902e-11 1.6266e-10)
(4.91333e-11 1.92041e-13 -4.19049e-14)
(4.87337e-11 1.96544e-13 -4.11685e-14)
(4.87241e-11 -3.05736e-13 4.67025e-14)
(4.91257e-11 -3.0843e-13 4.86038e-14)
(1.09414e-09 1.38687e-12 -2.80459e-13)
(1.09265e-09 1.40819e-12 -2.80421e-13)
(1.09259e-09 -1.81246e-12 2.91035e-13)
(1.09408e-09 -1.82106e-12 3.05426e-13)
(2.30563e-08 6.9315e-12 -1.72348e-12)
(2.30525e-08 7.00437e-12 -1.7447e-12)
(2.30523e-08 -7.66614e-12 1.71169e-12)
(2.3056e-08 -7.67012e-12 1.83006e-12)
(4.82989e-07 2.51566e-11 -8.5597e-12)
(4.82988e-07 2.42602e-11 -8.44658e-12)
(4.82988e-07 -2.54256e-11 8.37113e-12)
(4.82985e-07 -2.4215e-11 8.70145e-12)
(1.00871e-05 5.44307e-11 -2.76219e-11)
(1.00871e-05 5.79362e-11 -3.03842e-11)
(1.00871e-05 -5.30582e-11 2.71568e-11)
(1.0087e-05 -5.5309e-11 3.0684e-11)
(0.000210425 7.46562e-11 -6.00098e-11)
(0.000210424 -1.48114e-11 -3.38352e-11)
(0.000210425 -7.05627e-11 6.0812e-11)
(0.000210424 1.97681e-11 3.20041e-11)
(0.0043884 2.90044e-11 7.62082e-11)
(0.00438839 2.36135e-11 -8.27711e-11)
(0.00438839 -2.56927e-11 -8.38062e-11)
(0.00438839 -2.06396e-11 8.42375e-11)
(0.0915161 -4.0795e-13 -7.0913e-11)
(0.0915161 7.06243e-11 -7.12745e-11)
(0.0915161 8.88157e-13 7.48157e-11)
(0.0915161 -7.03868e-11 7.38067e-11)
(4.96314e-11 1.36123e-13 -4.21635e-14)
(4.92897e-11 1.4186e-13 -3.91441e-14)
(4.92809e-11 -2.51679e-13 5.16231e-14)
(4.96223e-11 -2.56832e-13 4.73427e-14)
(1.10034e-09 1.00401e-12 -3.18608e-13)
(1.09897e-09 1.03553e-12 -2.92319e-13)
(1.09892e-09 -1.44093e-12 2.97615e-13)
(1.10029e-09 -1.47047e-12 2.67289e-13)
(2.31131e-08 5.11541e-12 -1.96909e-12)
(2.31086e-08 5.24523e-12 -1.75291e-12)
(2.31082e-08 -5.83706e-12 1.82112e-12)
(2.31129e-08 -5.97915e-12 1.58425e-12)
(4.83371e-07 1.90541e-11 -9.56486e-12)
(4.83364e-07 1.9702e-11 -8.03019e-12)
(4.83361e-07 -1.90697e-11 9.32656e-12)
(4.83371e-07 -1.98764e-11 7.68129e-12)
(1.00887e-05 4.51756e-11 -3.35258e-11)
(1.00887e-05 4.52565e-11 -2.08479e-11)
(1.00887e-05 -4.27371e-11 3.38488e-11)
(1.00887e-05 -4.38092e-11 2.0591e-11)
(0.000210427 1.741e-11 -6.04889e-11)
(0.000210428 7.24964e-11 -2.35794e-11)
(0.000210427 -1.46168e-11 6.10695e-11)
(0.000210428 -6.91682e-11 2.07763e-11)
(0.00438839 6.03247e-11 -1.66773e-10)
(0.00438839 -1.97874e-11 1.75479e-10)
(0.00438839 -5.73267e-11 1.58141e-10)
(0.00438839 2.35513e-11 -1.87866e-10)
(0.0915161 7.0966e-11 -1.14443e-10)
(0.0915161 -5.92745e-11 -3.62066e-11)
(0.0915161 -6.8873e-11 1.12563e-10)
(0.0915161 6.09029e-11 3.05094e-11)
(4.99308e-11 8.89303e-14 -1.9141e-14)
(4.96364e-11 1.02092e-13 -1.37485e-14)
(4.96226e-11 -2.13013e-13 2.79881e-14)
(4.99172e-11 -2.25524e-13 2.20017e-14)
(1.10414e-09 6.74477e-13 -1.74142e-13)
(1.10288e-09 7.74514e-13 -1.30997e-13)
(1.1028e-09 -1.15865e-12 1.38289e-13)
(1.10404e-09 -1.25319e-12 9.36167e-14)
(2.31478e-08 3.50699e-12 -1.09495e-12)
(2.31426e-08 4.13852e-12 -7.39275e-13)
(2.31421e-08 -4.32212e-12 8.73495e-13)
(2.31472e-08 -4.92422e-12 5.16398e-13)
(4.83603e-07 1.3469e-11 -5.31348e-12)
(4.83586e-07 1.71879e-11 -2.62248e-12)
(4.83583e-07 -1.35636e-11 4.87531e-12)
(4.836e-07 -1.71755e-11 2.24317e-12)
(1.00897e-05 3.55645e-11 -1.90945e-11)
(1.00896e-05 5.21762e-11 -2.02653e-12)
(1.00896e-05 -3.38881e-11 1.88376e-11)
(1.00897e-05 -5.04575e-11 2.31902e-12)
(0.000210429 2.47897e-11 -5.24259e-11)
(0.000210429 5.78564e-11 4.26817e-11)
(0.000210429 -2.39791e-11 4.92152e-11)
(0.000210429 -5.73593e-11 -4.31067e-11)
(0.00438838 -2.22232e-12 -1.24537e-10)
(0.00438838 1.78742e-11 1.03014e-10)
(0.00438838 4.42715e-12 1.0897e-10)
(0.00438838 -1.59408e-11 -1.18321e-10)
(0.0915161 4.28983e-14 -1.79751e-10)
(0.0915161 -6.96517e-12 1.03814e-10)
(0.0915161 2.60774e-12 1.68922e-10)
(0.0915161 9.7862e-12 -1.14315e-10)
(4.99899e-11 7.87224e-14 1.45129e-14)
(4.96987e-11 9.83724e-14 1.88148e-14)
(4.96784e-11 -2.09954e-13 -1.04734e-14)
(4.99703e-11 -2.29333e-13 -1.52371e-14)
(1.10484e-09 6.06217e-13 7.14718e-14)
(1.10358e-09 7.67267e-13 1.03909e-13)
(1.10344e-09 -1.12853e-12 -9.18621e-14)
(1.10471e-09 -1.28795e-12 -1.28813e-13)
(2.31535e-08 3.21196e-12 4.33634e-13)
(2.31481e-08 4.32247e-12 7.03079e-13)
(2.31473e-08 -4.08262e-12 -5.48597e-13)
(2.31527e-08 -5.18303e-12 -8.56115e-13)
(4.83631e-07 1.23876e-11 2.35091e-12)
(4.83615e-07 1.92253e-11 4.38816e-12)
(4.8361e-07 -1.24163e-11 -2.48205e-12)
(4.83629e-07 -1.92087e-11 -4.75663e-12)
(1.00897e-05 2.77206e-11 7.49859e-12)
(1.00897e-05 6.20394e-11 1.84514e-11)
(1.00897e-05 -2.63081e-11 -7.00699e-12)
(1.00897e-05 -6.06083e-11 -1.90681e-11)
(0.000210429 -2.21548e-11 -1.89542e-11)
(0.000210429 1.11713e-10 5.60211e-11)
(0.000210429 1.93304e-11 1.86681e-11)
(0.000210429 -1.1411e-10 -5.87972e-11)
(0.00438838 1.52881e-12 -6.03836e-11)
(0.00438838 9.08512e-12 6.25649e-11)
(0.00438838 -1.87304e-12 4.88798e-11)
(0.00438838 -9.48071e-12 -7.47013e-11)
(0.0915161 3.95344e-11 -9.94783e-11)
(0.0915161 -5.67235e-11 1.52769e-10)
(0.0915161 -3.62954e-11 8.87955e-11)
(0.0915161 5.97044e-11 -1.63717e-10)
(4.97734e-11 1.10495e-13 3.95925e-14)
(4.94393e-11 1.34101e-13 4.09761e-14)
(4.94143e-11 -2.4314e-13 -4.50682e-14)
(4.97487e-11 -2.67454e-13 -4.64742e-14)
(1.10205e-09 8.29429e-13 2.73416e-13)
(1.10065e-09 1.02758e-12 2.84517e-13)
(1.10049e-09 -1.35754e-12 -2.78477e-13)
(1.10188e-09 -1.56413e-12 -2.90431e-13)
(2.31269e-08 4.35122e-12 1.67577e-12)
(2.31218e-08 5.72527e-12 1.77754e-12)
(2.3121e-08 -5.20737e-12 -1.68189e-12)
(2.3126e-08 -6.63821e-12 -1.78497e-12)
(4.83442e-07 1.60856e-11 8.29225e-12)
(4.83432e-07 2.37614e-11 8.70536e-12)
(4.83429e-07 -1.59556e-11 -8.37183e-12)
(4.83439e-07 -2.39207e-11 -8.74256e-12)
(1.00889e-05 2.76712e-11 2.67542e-11)
(1.00889e-05 7.13057e-11 3.06258e-11)
(1.00889e-05 -2.60517e-11 -2.74996e-11)
(1.00889e-05 -7.04781e-11 -3.06157e-11)
(0.000210427 -5.77938e-13 5.90483e-11)
(0.000210427 7.47064e-11 3.38707e-11)
(0.000210427 -3.0137e-12 -6.12633e-11)
(0.000210427 -7.84345e-11 -3.28745e-11)
(0.00438839 -3.79844e-11 -8.06481e-11)
(0.00438838 6.38083e-11 8.46961e-11)
(0.00438839 3.5833e-11 8.04266e-11)
(0.00438838 -6.54888e-11 -8.26938e-11)
(0.0915161 -1.69946e-11 7.0939e-11)
(0.0915161 3.55756e-11 7.15857e-11)
(0.0915161 1.93967e-11 -7.45371e-11)
(0.0915161 -3.29368e-11 -7.40773e-11)
(4.92703e-11 1.66298e-13 4.06782e-14)
(4.88745e-11 1.89576e-13 3.89432e-14)
(4.88491e-11 -2.97369e-13 -5.56935e-14)
(4.92449e-11 -3.20845e-13 -5.22351e-14)
(1.09579e-09 1.21115e-12 3.10103e-13)
(1.09427e-09 1.40943e-12 2.96223e-13)
(1.09411e-09 -1.73335e-12 -3.17216e-13)
(1.09564e-09 -1.93045e-12 -2.9262e-13)
(2.30699e-08 6.18188e-12 1.92507e-12)
(2.30656e-08 7.44128e-12 1.78216e-12)
(2.30648e-08 -7.08013e-12 -1.897e-12)
(2.30692e-08 -8.31342e-12 -1.67709e-12)
(4.83058e-07 2.16759e-11 9.17912e-12)
(4.83058e-07 2.99098e-11 8.17118e-12)
(4.83054e-07 -2.19784e-11 -9.34511e-12)
(4.83056e-07 -2.98868e-11 -7.9077e-12)
(1.00872e-05 4.65214e-11 3.30327e-11)
(1.00873e-05 7.13647e-11 2.11342e-11)
(1.00872e-05 -4.58998e-11 -3.42145e-11)
(1.00872e-05 -6.95506e-11 -2.09551e-11)
(0.000210424 -6.17732e-11 6.01398e-11)
(0.000210424 1.32171e-10 2.34052e-11)
(0.000210424 5.91455e-11 -6.0553e-11)
(0.000210424 -1.33826e-10 -2.18845e-11)
(0.00438839 9.14331e-12 1.67355e-10)
(0.00438839 3.16664e-11 -1.73485e-10)
(0.00438839 -1.01013e-11 -1.57299e-10)
(0.00438839 -3.36997e-11 1.88656e-10)
(0.0915161 9.4951e-11 1.14755e-10)
(0.0915161 -4.26314e-11 3.78404e-11)
(0.0915161 -9.31148e-11 -1.11771e-10)
(0.0915161 4.35577e-11 -2.94522e-11)
(4.87478e-11 2.11296e-13 2.14534e-14)
(4.83113e-11 2.30319e-13 1.3941e-14)
(4.82892e-11 -3.41827e-13 -2.96224e-14)
(4.87281e-11 -3.58636e-13 -2.41313e-14)
(1.08953e-09 1.52608e-12 1.81185e-13)
(1.08793e-09 1.67216e-12 1.26901e-13)
(1.0878e-09 -2.0378e-12 -1.50847e-13)
(1.08939e-09 -2.16438e-12 -1.08612e-13)
(2.30143e-08 7.63601e-12 1.14266e-12)
(2.30107e-08 8.6419e-12 7.06443e-13)
(2.30102e-08 -8.551e-12 -9.03294e-13)
(2.30136e-08 -9.45858e-12 -5.61483e-13)
(4.82696e-07 2.7607e-11 5.58093e-12)
(4.82703e-07 3.09288e-11 2.36371e-12)
(4.82702e-07 -2.7925e-11 -4.87461e-12)
(4.82693e-07 -3.10607e-11 -2.20206e-12)
(1.00857e-05 4.65503e-11 1.99621e-11)
(1.00857e-05 7.69495e-11 1.78501e-12)
(1.00858e-05 -4.50229e-11 -1.84948e-11)
(1.00857e-05 -7.56567e-11 -2.38732e-12)
(0.000210421 4.96497e-11 5.33875e-11)
(0.000210421 2.70351e-12 -4.27171e-11)
(0.000210422 -4.91151e-11 -4.87639e-11)
(0.000210421 -9.13799e-13 4.3977e-11)
(0.0043884 -6.56249e-12 1.28977e-10)
(0.00438839 7.03978e-11 -1.04939e-10)
(0.0043884 5.98035e-12 -1.0559e-10)
(0.00438839 -6.95002e-11 1.16777e-10)
(0.0915161 -1.75419e-11 1.79724e-10)
(0.0915161 1.13279e-10 -1.04125e-10)
(0.0915161 1.78026e-11 -1.69201e-10)
(0.0915161 -1.13187e-10 1.14586e-10)
)
;

boundaryField
{
    movingWall
    {
        type            fixedValue;
        value           uniform (1 0 0);
    }
    CPLReceiveMD
    {
        type            fixedValue;
        value           uniform (0 0 0);
    }
    streamwiseIn
    {
        type            cyclic;
    }
    streamwiseOut
    {
        type            cyclic;
    }
    front
    {
        type            cyclic;
    }
    back
    {
        type            cyclic;
    }
    procBoundary1to0
    {
        type            processor;
        value           nonuniform List<vector> 
64
(
(4.8681e-11 -3.56487e-13 1.99831e-14)
(1.08879e-09 -2.13144e-12 1.54196e-13)
(2.30084e-08 -9.08858e-12 9.49017e-13)
(4.82665e-07 -3.05632e-11 4.98307e-12)
(1.00856e-05 -5.24439e-11 1.94323e-11)
(0.000210422 -8.94006e-11 5.99054e-11)
(0.0043884 -7.76101e-13 7.39109e-11)
(0.0915161 4.52902e-11 1.6266e-10)
(4.91198e-11 -3.10046e-13 4.35991e-14)
(1.09409e-09 -1.82223e-12 3.05362e-13)
(2.3056e-08 -7.66982e-12 1.82982e-12)
(4.82985e-07 -2.42151e-11 8.70139e-12)
(1.0087e-05 -5.5309e-11 3.0684e-11)
(0.000210424 1.97681e-11 3.20041e-11)
(0.00438839 -2.06396e-11 8.42375e-11)
(0.0915161 -7.03868e-11 7.38067e-11)
(4.96203e-11 -2.5736e-13 4.60426e-14)
(1.10029e-09 -1.47072e-12 2.67807e-13)
(2.31129e-08 -5.97895e-12 1.58402e-12)
(4.83371e-07 -1.98764e-11 7.68124e-12)
(1.00887e-05 -4.38092e-11 2.05909e-11)
(0.000210428 -6.91682e-11 2.07763e-11)
(0.00438839 2.35512e-11 -1.87866e-10)
(0.0915161 6.09029e-11 3.05092e-11)
(4.99156e-11 -2.2606e-13 2.27119e-14)
(1.10404e-09 -1.25359e-12 9.39646e-14)
(2.31472e-08 -4.92413e-12 5.16296e-13)
(4.836e-07 -1.71755e-11 2.24314e-12)
(1.00897e-05 -5.04575e-11 2.31902e-12)
(0.000210429 -5.73593e-11 -4.31067e-11)
(0.00438838 -1.59408e-11 -1.18321e-10)
(0.0915161 9.78617e-12 -1.14315e-10)
(4.99685e-11 -2.29833e-13 -1.52374e-14)
(1.10471e-09 -1.28836e-12 -1.2883e-13)
(2.31527e-08 -5.18297e-12 -8.56125e-13)
(4.83629e-07 -1.92087e-11 -4.75663e-12)
(1.00897e-05 -6.06083e-11 -1.90681e-11)
(0.000210429 -1.1411e-10 -5.87972e-11)
(0.00438838 -9.48072e-12 -7.47013e-11)
(0.0915161 5.97044e-11 -1.63717e-10)
(4.97471e-11 -2.6799e-13 -4.71574e-14)
(1.10188e-09 -1.56453e-12 -2.90813e-13)
(2.3126e-08 -6.63812e-12 -1.78489e-12)
(4.83439e-07 -2.39207e-11 -8.74254e-12)
(1.00889e-05 -7.04781e-11 -3.06157e-11)
(0.000210427 -7.84345e-11 -3.28745e-11)
(0.00438838 -6.54888e-11 -8.26938e-11)
(0.0915161 -3.29369e-11 -7.40773e-11)
(4.92427e-11 -3.21383e-13 -5.07883e-14)
(1.09564e-09 -1.93071e-12 -2.93174e-13)
(2.30692e-08 -8.31321e-12 -1.67692e-12)
(4.83056e-07 -2.98868e-11 -7.90767e-12)
(1.00872e-05 -6.95506e-11 -2.09551e-11)
(0.000210424 -1.33826e-10 -2.18845e-11)
(0.00438839 -3.36997e-11 1.88656e-10)
(0.0915161 4.35576e-11 -2.94522e-11)
(4.87222e-11 -3.60322e-13 -1.91536e-14)
(1.08939e-09 -2.16563e-12 -1.08514e-13)
(2.30136e-08 -9.45828e-12 -5.61219e-13)
(4.82693e-07 -3.10608e-11 -2.20199e-12)
(1.00857e-05 -7.56567e-11 -2.3873e-12)
(0.000210421 -9.13803e-13 4.3977e-11)
(0.00438839 -6.95003e-11 1.16777e-10)
(0.0915161 -1.13187e-10 1.14586e-10)
)
;
    }
    procBoundary1to0throughstreamwiseOut
    {
        type            processorCyclic;
        value           nonuniform List<vector> 
64
(
(4.87048e-11 2.25128e-13 -1.30912e-14)
(1.08887e-09 1.62565e-12 -6.29401e-14)
(2.30087e-08 8.18174e-12 -3.8957e-13)
(4.82666e-07 2.86461e-11 -1.96515e-12)
(1.00856e-05 6.42341e-11 -7.00548e-12)
(0.000210421 -2.08513e-11 1.93033e-11)
(0.00438839 6.76699e-11 5.98017e-11)
(0.0915161 1.25109e-10 9.91662e-11)
(4.91377e-11 1.92046e-13 -4.18295e-14)
(1.09414e-09 1.38687e-12 -2.80509e-13)
(2.30563e-08 6.93148e-12 -1.72352e-12)
(4.82989e-07 2.51566e-11 -8.55972e-12)
(1.00871e-05 5.44308e-11 -2.76219e-11)
(0.000210425 7.46562e-11 -6.00099e-11)
(0.0043884 2.90044e-11 7.62083e-11)
(0.0915161 -4.07985e-13 -7.09127e-11)
(4.9632e-11 1.36105e-13 -4.21199e-14)
(1.10034e-09 1.00399e-12 -3.18633e-13)
(2.31131e-08 5.1154e-12 -1.96911e-12)
(4.83371e-07 1.90541e-11 -9.56487e-12)
(1.00887e-05 4.51756e-11 -3.35258e-11)
(0.000210427 1.741e-11 -6.04889e-11)
(0.00438839 6.03248e-11 -1.66773e-10)
(0.0915161 7.09661e-11 -1.14443e-10)
(4.99326e-11 8.89162e-14 -1.91431e-14)
(1.10413e-09 6.74462e-13 -1.74148e-13)
(2.31478e-08 3.50698e-12 -1.09495e-12)
(4.83603e-07 1.3469e-11 -5.31349e-12)
(1.00897e-05 3.55645e-11 -1.90945e-11)
(0.000210429 2.47897e-11 -5.24259e-11)
(0.00438838 -2.22226e-12 -1.24537e-10)
(0.0915161 4.29471e-14 -1.79751e-10)
(4.99918e-11 7.87016e-14 1.45277e-14)
(1.10484e-09 6.06195e-13 7.14707e-14)
(2.31535e-08 3.21196e-12 4.3363e-13)
(4.83631e-07 1.23876e-11 2.35091e-12)
(1.00897e-05 2.77206e-11 7.49859e-12)
(0.000210429 -2.21548e-11 -1.89542e-11)
(0.00438838 1.52882e-12 -6.03836e-11)
(0.0915161 3.95344e-11 -9.94784e-11)
(4.97751e-11 1.10469e-13 3.96199e-14)
(1.10205e-09 8.29401e-13 2.7342e-13)
(2.31269e-08 4.35121e-12 1.67576e-12)
(4.83442e-07 1.60856e-11 8.29225e-12)
(1.00889e-05 2.76712e-11 2.67542e-11)
(0.000210427 -5.7793e-13 5.90483e-11)
(0.00438839 -3.79844e-11 -8.06481e-11)
(0.0915161 -1.69946e-11 7.09391e-11)
(4.92709e-11 1.66258e-13 4.06835e-14)
(1.09579e-09 1.2111e-12 3.10102e-13)
(2.30699e-08 6.18187e-12 1.92505e-12)
(4.83058e-07 2.16759e-11 9.17911e-12)
(1.00872e-05 4.65214e-11 3.30327e-11)
(0.000210424 -6.17732e-11 6.01398e-11)
(0.00438839 9.14334e-12 1.67355e-10)
(0.0915161 9.4951e-11 1.14755e-10)
(4.87524e-11 2.11258e-13 2.13526e-14)
(1.08953e-09 1.52603e-12 1.81237e-13)
(2.30143e-08 7.636e-12 1.14271e-12)
(4.82696e-07 2.7607e-11 5.58096e-12)
(1.00857e-05 4.65503e-11 1.99621e-11)
(0.000210421 4.96497e-11 5.33875e-11)
(0.0043884 -6.56244e-12 1.28977e-10)
(0.0915161 -1.75419e-11 1.79724e-10)
)
;
    }
}


// ************************************************************************* //
