/*--------------------------------*- C++ -*----------------------------------*\
| =========                 |                                                 |
| \\      /  F ield         | OpenFOAM: The Open Source CFD Toolbox           |
|  \\    /   O peration     | Version:  2112                                  |
|   \\  /    A nd           | Website:  www.openfoam.com                      |
|    \\/     M anipulation  |                                                 |
\*---------------------------------------------------------------------------*/
FoamFile
{
    version     2.0;
    format      ascii;
    arch        "LSB;label=32;scalar=64";
    class       volScalarField;
    location    "5";
    object      p;
}
// * * * * * * * * * * * * * * * * * * * * * * * * * * * * * * * * * * * * * //

dimensions      [0 2 -2 0 0 0 0];

internalField   nonuniform List<scalar> 
256
(
3.94716e-12
-5.3376e-12
2.81905e-15
1.71133e-12
2.64145e-10
2.65296e-10
2.99236e-10
2.96795e-10
4.4311e-10
4.58149e-10
5.97151e-10
5.82575e-10
-2.22313e-10
-1.40817e-10
3.15359e-10
2.33504e-10
-2.19417e-09
-2.01046e-09
-6.25872e-10
-8.58897e-10
-3.15828e-09
-3.1342e-09
7.58591e-10
3.99612e-10
1.06561e-10
7.2461e-10
5.15803e-09
4.1199e-09
1.77488e-08
1.2153e-08
1.12118e-08
1.84863e-08
1.74744e-11
1.10373e-11
1.36384e-11
1.609e-11
2.69187e-10
2.70749e-10
2.99308e-10
2.96193e-10
4.17332e-10
4.28373e-10
5.44127e-10
5.31222e-10
-3.22432e-10
-2.67015e-10
9.94742e-11
4.54297e-11
-2.30776e-09
-2.17501e-09
-1.13525e-09
-1.20959e-09
-2.38303e-09
-2.16338e-09
2.75922e-10
2.91786e-10
1.92668e-09
3.56067e-09
6.94946e-09
5.79917e-09
2.20346e-08
2.10204e-08
9.69422e-09
1.09031e-08
3.35663e-11
3.26559e-11
3.56267e-11
3.52218e-11
2.76152e-10
2.78588e-10
2.98403e-10
2.95189e-10
4.08517e-10
4.17458e-10
4.93954e-10
4.85068e-10
-3.15643e-10
-2.83795e-10
-5.30336e-11
-8.56621e-11
-1.93654e-09
-1.92162e-09
-1.29412e-09
-1.29825e-09
-5.63028e-10
-6.39771e-10
7.09498e-10
8.39391e-10
4.94845e-09
6.19551e-09
5.0721e-09
4.11557e-09
1.07972e-08
4.06977e-09
3.04756e-09
9.89081e-09
4.28007e-11
4.47771e-11
4.85597e-11
4.55774e-11
2.80393e-10
2.82953e-10
2.96307e-10
2.93379e-10
4.25217e-10
4.33626e-10
4.7836e-10
4.72883e-10
-2.15608e-10
-1.89135e-10
-7.26288e-11
-1.01663e-10
-1.41746e-09
-1.4254e-09
-1.17918e-09
-1.20135e-09
1.19942e-09
1.10767e-09
1.20886e-09
1.06255e-09
4.52769e-09
5.54707e-09
3.13217e-09
1.90704e-09
2.8622e-09
-5.7012e-09
-1.2527e-08
-3.95861e-09
4.27654e-11
4.53523e-11
4.93245e-11
4.61647e-11
2.79272e-10
2.81538e-10
2.94228e-10
2.91861e-10
4.45121e-10
4.50978e-10
4.9574e-10
4.88358e-10
-1.00749e-10
-6.82787e-11
4.45894e-11
5.73843e-13
-1.00242e-09
-9.19553e-10
-7.1042e-10
-7.91216e-10
1.73882e-09
1.92944e-09
1.87477e-09
1.46585e-09
2.48397e-09
3.05092e-09
2.2391e-10
-5.0324e-10
-4.25357e-09
-1.69166e-08
-2.53271e-08
-1.27369e-08
3.41614e-11
3.62892e-11
4.12775e-11
3.87039e-11
2.73731e-10
2.75281e-10
2.94154e-10
2.91986e-10
4.5178e-10
4.58393e-10
5.33164e-10
5.22332e-10
-3.68737e-11
2.825e-11
2.47899e-10
1.83291e-10
-9.05201e-10
-6.0676e-10
-8.61756e-11
-2.88839e-10
8.50436e-10
1.53258e-09
2.46318e-09
1.84718e-09
-2.6421e-10
1.05172e-09
-1.86882e-09
-2.62663e-09
-1.27714e-08
-1.91397e-08
-2.43726e-08
-1.78531e-08
1.93165e-11
1.86733e-11
2.36995e-11
2.36439e-11
2.67161e-10
2.68307e-10
2.96352e-10
2.9377e-10
4.60075e-10
4.70417e-10
5.84272e-10
5.69654e-10
-1.85924e-11
7.30624e-11
4.39222e-10
3.4552e-10
-1.12105e-09
-7.42563e-10
2.6701e-10
-4.11754e-11
-7.02326e-10
1.0718e-10
2.30165e-09
1.7779e-09
-2.93929e-09
-2.50686e-09
-1.55107e-10
-1.38365e-10
-1.12194e-09
-1.3952e-08
-2.15556e-08
-1.03386e-08
6.02803e-12
-2.47163e-13
3.77721e-12
6.64329e-12
2.63265e-10
2.64617e-10
2.98268e-10
2.96118e-10
4.60933e-10
4.76048e-10
6.14029e-10
6.00016e-10
-8.58221e-11
1.32845e-11
4.69051e-10
3.7137e-10
-1.65258e-09
-1.31878e-09
4.11152e-11
-3.41363e-10
-2.38113e-09
-1.762e-09
1.77965e-09
8.74085e-10
-2.18666e-09
-1.12961e-09
2.71727e-09
1.19144e-09
7.92439e-09
7.83827e-09
-2.07397e-09
-2.62575e-09
)
;

boundaryField
{
    movingWall
    {
        type            zeroGradient;
    }
    CPLReceiveMD
    {
        type            zeroGradient;
    }
    streamwiseIn
    {
        type            cyclic;
    }
    streamwiseOut
    {
        type            cyclic;
    }
    front
    {
        type            cyclic;
    }
    back
    {
        type            cyclic;
    }
    procBoundary0to1
    {
        type            processor;
        value           nonuniform List<scalar> 
64
(
5.0856e-12
2.64435e-10
4.43125e-10
-2.22312e-10
-2.19417e-09
-3.15828e-09
1.06562e-10
1.77487e-08
1.82782e-11
2.69413e-10
4.17345e-10
-3.22431e-10
-2.30776e-09
-2.38303e-09
1.92668e-09
2.20346e-08
3.39571e-11
2.76295e-10
4.08527e-10
-3.15643e-10
-1.93654e-09
-5.63028e-10
4.94845e-09
1.07972e-08
4.30612e-11
2.80503e-10
4.25227e-10
-2.15608e-10
-1.41746e-09
1.19942e-09
4.52769e-09
2.8622e-09
4.31268e-11
2.79405e-10
4.45134e-10
-1.00749e-10
-1.00242e-09
1.73882e-09
2.48397e-09
-4.25357e-09
3.47515e-11
2.73921e-10
4.51796e-10
-3.68738e-11
-9.05201e-10
8.50436e-10
-2.6421e-10
-1.27714e-08
2.02086e-11
2.67416e-10
4.60094e-10
-1.85923e-11
-1.12105e-09
-7.02326e-10
-2.93929e-09
-1.12194e-09
7.22081e-12
2.63566e-10
4.6095e-10
-8.58217e-11
-1.65258e-09
-2.38113e-09
-2.18665e-09
7.92439e-09
)
;
    }
    procBoundary0to1throughstreamwiseIn
    {
        type            processorCyclic;
        value           nonuniform List<scalar> 
64
(
2.33177e-11
3.01004e-10
5.82511e-10
2.33413e-10
-8.5892e-10
3.99606e-10
4.1199e-09
1.84863e-08
3.26843e-11
2.99763e-10
5.31242e-10
4.53572e-11
-1.20961e-09
2.9178e-10
5.79917e-09
1.09031e-08
4.3327e-11
2.97412e-10
4.85148e-10
-8.57097e-11
-1.29827e-09
8.39387e-10
4.11557e-09
9.89081e-09
4.87498e-11
2.94614e-10
4.7296e-10
-1.01695e-10
-1.20136e-09
1.06254e-09
1.90704e-09
-3.95861e-09
4.78541e-11
2.9271e-10
4.88417e-10
5.4747e-13
-7.91229e-10
1.46585e-09
-5.03241e-10
-1.27369e-08
4.12369e-11
2.93028e-10
5.22382e-10
1.83257e-10
-2.88852e-10
1.84718e-09
-2.62663e-09
-1.78531e-08
3.05928e-11
2.95637e-10
5.69688e-10
3.4547e-10
-4.11918e-11
1.77789e-09
-1.38368e-10
-1.03386e-08
2.21561e-11
2.99376e-10
5.99997e-10
3.71296e-10
-3.41383e-10
8.74079e-10
1.19144e-09
-2.62575e-09
)
;
    }
}


// ************************************************************************* //
