/*--------------------------------*- C++ -*----------------------------------*\
| =========                 |                                                 |
| \\      /  F ield         | OpenFOAM: The Open Source CFD Toolbox           |
|  \\    /   O peration     | Version:  2112                                  |
|   \\  /    A nd           | Website:  www.openfoam.com                      |
|    \\/     M anipulation  |                                                 |
\*---------------------------------------------------------------------------*/
FoamFile
{
    version     2.0;
    format      ascii;
    arch        "LSB;label=32;scalar=64";
    class       surfaceScalarField;
    location    "5";
    object      phi;
}
// * * * * * * * * * * * * * * * * * * * * * * * * * * * * * * * * * * * * * //

dimensions      [0 3 -1 0 0 0 0];

oriented        oriented;

internalField   nonuniform List<scalar> 
640
(
6.07707e-08
5.32199e-11
-7.66838e-12
6.07257e-08
5.00556e-11
-7.92894e-12
6.07747e-08
-5.71755e-11
2.67629e-12
-5.30026e-11
4.98272e-12
1.12036e-06
2.84038e-10
-3.72723e-11
1.12018e-06
2.71351e-10
-5.09588e-11
1.12038e-06
-2.93817e-10
2.08569e-11
-2.72562e-10
3.58436e-11
1.85892e-05
1.21967e-09
-1.83381e-10
1.85887e-05
1.08841e-09
-2.66353e-10
1.85894e-05
-1.24541e-09
1.91326e-10
-1.12128e-09
2.8768e-10
0.00028938
3.71606e-09
-9.73705e-10
0.00028938
3.061e-09
-1.44331e-09
0.000289381
-3.67523e-09
1.07899e-09
-3.14592e-09
1.66756e-09
0.00413449
5.71525e-09
-4.49901e-09
0.00413449
4.80361e-09
-6.84787e-09
0.00413449
-5.04425e-09
4.40121e-09
-4.38226e-09
7.44447e-09
0.052346
-2.83204e-09
-1.46037e-08
0.052346
2.69134e-09
-2.41606e-08
0.052346
4.3028e-09
1.21872e-08
-3.2826e-10
2.46642e-08
0.55304
-1.59009e-08
-1.11986e-08
0.553041
-4.10738e-09
-3.34776e-08
0.55304
1.21281e-08
9.52234e-09
2.38751e-09
3.70875e-08
4.34363
1.05916e-09
4.34363
-7.00657e-09
4.34363
-1.57036e-09
6.80698e-09
6.08295e-08
4.38079e-11
-6.7065e-12
6.07927e-08
3.61058e-11
-7.21948e-12
6.0839e-08
-5.11798e-11
7.5734e-12
-4.32379e-11
1.09014e-11
1.12106e-06
2.32948e-10
-5.49128e-11
1.12091e-06
1.99442e-10
-6.56397e-11
1.12109e-06
-2.55177e-10
4.75556e-11
-2.03462e-10
5.52855e-11
1.85957e-05
1.00911e-09
-3.26233e-10
1.85952e-05
7.93649e-10
-3.91261e-10
1.85959e-05
-1.04392e-09
3.37548e-10
-7.57993e-10
3.81908e-10
0.000289429
3.0571e-09
-1.83488e-09
0.000289429
2.13258e-09
-2.1707e-09
0.00028943
-3.0424e-09
1.89713e-09
-1.8603e-09
2.15167e-09
0.00413477
5.00554e-09
-8.65813e-09
0.00413478
3.34188e-09
-1.00354e-08
0.00413477
-4.48656e-09
8.40773e-09
-2.38826e-09
9.59895e-09
0.0523471
-1.58714e-09
-2.81743e-08
0.0523471
9.53289e-10
-3.1569e-08
0.0523471
3.10203e-09
2.65399e-08
6.06814e-10
2.96883e-08
0.553043
-1.52189e-08
-4.89947e-08
0.553043
-7.22363e-09
-4.96339e-08
0.553043
1.28408e-08
5.44926e-08
4.1175e-09
5.46289e-08
4.34363
-1.80776e-08
4.34363
3.67369e-08
4.34363
1.62966e-08
-4.11508e-08
6.09064e-08
3.20772e-11
-4.17885e-12
6.08808e-08
2.21486e-11
-3.77671e-12
6.09134e-08
-3.64606e-11
1.1381e-11
-2.53919e-11
9.46578e-12
1.12192e-06
1.53474e-10
-4.13695e-11
1.12182e-06
1.00898e-10
-4.13682e-11
1.12196e-06
-1.72295e-10
4.3288e-11
-1.08345e-10
4.1773e-11
1.86036e-05
6.52301e-10
-2.95588e-10
1.86033e-05
3.34927e-10
-2.93927e-10
1.86038e-05
-6.22115e-10
2.62263e-10
-3.06859e-10
2.44604e-10
0.00028949
1.79735e-09
-1.65602e-09
0.000289489
5.72524e-10
-1.60816e-09
0.00028949
-1.5926e-09
1.54336e-09
-3.7434e-10
1.41921e-09
0.00413513
1.88554e-09
-7.74635e-09
0.00413513
4.99114e-11
-7.18686e-09
0.00413513
-1.51263e-09
7.37634e-09
4.15955e-10
6.434e-09
0.0523486
-3.94892e-09
-2.60357e-08
0.0523485
2.06685e-09
-2.18265e-08
0.0523485
3.88748e-09
2.53272e-08
-1.80619e-09
1.96596e-08
0.553046
-1.07506e-08
-4.44923e-08
0.553046
6.86738e-09
-2.02331e-08
0.553046
9.96488e-09
5.24031e-08
-7.53108e-09
2.44636e-08
4.34363
-6.87968e-08
4.34363
6.25055e-09
4.34363
6.56054e-08
-1.07035e-08
6.09541e-08
2.18332e-11
7.41292e-13
6.09355e-08
1.2471e-11
2.41193e-12
6.09629e-08
-2.10143e-11
4.99124e-12
-1.16209e-11
2.67901e-12
1.12247e-06
8.49253e-11
-3.26756e-12
1.1224e-06
3.59283e-11
6.76377e-12
1.1225e-06
-1.01953e-10
1.75767e-11
-4.26875e-11
7.33893e-12
1.86086e-05
2.90532e-10
-8.02153e-11
1.86084e-05
-1.76098e-11
-7.46622e-12
1.86088e-05
-3.03774e-10
5.94568e-11
-4.2494e-11
-4.97712e-12
0.000289527
5.24441e-10
-5.16824e-10
0.000289526
-5.52373e-10
-6.32961e-11
0.000289528
-4.75022e-10
3.30821e-10
4.62423e-10
-8.5234e-11
0.00413535
-5.92694e-10
-2.55056e-09
0.00413534
-1.33166e-09
-3.68595e-12
0.00413534
8.16215e-10
1.81061e-09
1.30143e-09
-6.13187e-10
0.0523494
-7.52276e-09
-9.23095e-09
0.0523494
2.73483e-09
2.33462e-09
0.0523494
6.40245e-09
8.5738e-09
-3.39816e-09
-2.57595e-09
0.553047
-1.42256e-08
-2.49585e-08
0.553047
1.02974e-08
1.26035e-08
0.553047
1.58988e-08
2.82232e-08
-8.47104e-09
-9.01031e-09
4.34363
-5.08502e-08
4.34363
-4.52343e-09
4.34363
4.97184e-08
1.51044e-09
6.09616e-08
2.02223e-11
5.14e-12
6.09431e-08
1.3771e-11
7.15678e-12
6.09686e-08
-1.66854e-11
-3.81535e-12
-1.02842e-11
-5.43152e-12
1.12255e-06
7.09807e-11
3.74449e-11
1.12248e-06
4.07808e-11
5.25676e-11
1.12257e-06
-7.84703e-11
-1.73102e-11
-3.96233e-11
-3.06175e-11
1.86093e-05
1.69777e-10
1.92079e-10
1.8609e-05
-2.62738e-12
2.91438e-10
1.86094e-05
-2.26919e-10
-1.63374e-10
-5.42795e-11
-2.45826e-10
0.000289532
-4.51435e-12
9.25148e-10
0.00028953
-4.37605e-10
1.49621e-09
0.000289532
-1.3999e-10
-1.07217e-09
3.48015e-10
-1.56375e-09
0.00413537
-2.15053e-09
4.12398e-09
0.00413536
-7.84487e-10
6.97706e-09
0.00413537
1.93326e-09
-4.85543e-09
4.17643e-10
-7.25249e-09
0.0523495
-1.04848e-08
1.30251e-08
0.0523494
3.60154e-09
2.46682e-08
0.0523495
8.74278e-09
-1.33489e-08
-4.86118e-09
-2.28253e-08
0.553048
-1.70908e-08
9.35077e-09
0.553047
1.17616e-08
3.43434e-08
0.553048
2.01611e-08
-1.25218e-08
-8.70767e-09
-3.34401e-08
4.34363
4.29766e-09
4.34363
-1.06396e-08
4.34363
-1.36333e-09
9.68473e-09
6.09245e-08
2.73144e-11
7.39091e-12
6.08991e-08
2.38026e-11
8.76207e-12
6.09285e-08
-2.32015e-11
-9.98489e-12
-2.13657e-11
-1.01207e-11
1.12212e-06
1.18466e-10
5.64579e-11
1.12201e-06
1.16402e-10
6.74109e-11
1.12213e-06
-1.12579e-10
-4.46824e-11
-9.89107e-11
-5.34114e-11
1.86053e-05
3.93844e-10
3.36269e-10
1.86049e-05
3.82904e-10
4.00435e-10
1.86053e-05
-3.8811e-10
-3.19928e-10
-3.34621e-10
-3.73343e-10
0.000289501
6.19721e-10
1.82689e-09
0.0002895
7.48192e-10
2.15748e-09
0.000289501
-7.06404e-10
-1.88111e-09
-7.46909e-10
-2.17849e-09
0.00413518
-1.66001e-09
8.53229e-09
0.00413518
5.59068e-10
9.94361e-09
0.00413518
1.18763e-09
-8.43675e-09
-1.39337e-09
-9.82479e-09
0.0523487
-1.07463e-08
2.81169e-08
0.0523487
3.43973e-09
3.17595e-08
0.0523487
8.86092e-09
-2.6182e-08
-4.54133e-09
-3.0495e-08
0.553046
-1.48829e-08
4.86858e-08
0.553046
7.75648e-09
5.05088e-08
0.553046
1.76924e-08
-5.35172e-08
-6.20022e-09
-5.52979e-08
4.34363
1.85818e-08
4.34363
-1.84342e-08
4.34363
-1.1634e-08
1.78316e-08
6.08508e-08
3.99764e-11
5.27317e-12
6.08147e-08
4.0274e-11
4.61422e-12
6.08503e-08
-3.81944e-11
-7.43545e-12
-3.82654e-11
-9.28022e-12
1.12126e-06
2.01179e-10
4.19137e-11
1.12111e-06
2.20284e-10
4.07447e-11
1.12126e-06
-1.90057e-10
-4.69821e-11
-1.88961e-10
-4.73166e-11
1.85974e-05
7.7815e-10
2.89867e-10
1.85968e-05
8.61711e-10
2.69979e-10
1.85974e-05
-7.7557e-10
-2.86199e-10
-7.63656e-10
-2.88661e-10
0.00028944
1.92191e-09
1.71155e-09
0.000289439
2.30882e-09
1.54547e-09
0.00028944
-2.17219e-09
-1.53969e-09
-2.2187e-09
-1.53188e-09
0.00413482
1.17995e-09
8.19048e-09
0.00413483
3.7567e-09
6.91554e-09
0.00413482
-2.21619e-09
-6.93798e-09
-4.3055e-09
-6.52878e-09
0.0523473
-9.32606e-09
2.77324e-08
0.0523473
3.0508e-09
1.99726e-08
0.0523473
8.89701e-09
-2.43653e-08
-4.1047e-09
-2.02426e-08
0.553043
-2.19709e-08
4.75326e-08
0.553043
-8.7629e-11
1.71764e-08
0.553043
2.32335e-08
-5.08179e-08
2.76678e-10
-2.64461e-08
4.34363
6.98355e-08
4.34363
-2.14726e-08
4.34363
-7.02058e-08
2.96395e-08
6.07771e-08
5.24723e-11
6.07328e-08
5.17008e-11
6.07809e-08
-5.0016e-11
-5.10977e-11
1.12044e-06
2.75877e-10
1.12026e-06
2.81034e-10
1.12044e-06
-2.59071e-10
-2.67067e-10
1.85899e-05
1.14411e-09
1.85893e-05
1.1206e-09
1.859e-05
-1.0988e-09
-1.13229e-09
0.000289384
3.27133e-09
0.000289384
3.13222e-09
0.000289385
-3.19485e-09
-3.33406e-09
0.0041345
4.20662e-09
0.00413451
4.95658e-09
0.00413451
-4.00746e-09
-5.27691e-09
0.052346
-4.36332e-09
0.0523461
1.63884e-09
0.052346
5.64253e-09
-7.7084e-10
0.55304
-1.6424e-08
0.553041
-9.10977e-09
0.553041
1.51132e-08
7.40555e-09
4.34363
4.34363
4.34363
)
;

boundaryField
{
    movingWall
    {
        type            calculated;
        value           uniform 0;
    }
    CPLReceiveMD
    {
        type            calculated;
        value           uniform 0;
    }
    streamwiseIn
    {
        type            cyclic;
        value           nonuniform List<scalar> 0();
    }
    streamwiseOut
    {
        type            cyclic;
        value           nonuniform List<scalar> 0();
    }
    front
    {
        type            cyclic;
        value           nonuniform List<scalar> 
32
(
-1.55056e-13
1.28573e-12
6.7145e-11
5.16263e-10
2.59738e-09
9.15628e-09
2.3981e-08
4.30735e-08
-2.85171e-12
-8.78919e-12
-2.9876e-12
7.48453e-11
1.413e-10
-1.71758e-09
-1.12205e-08
2.66514e-08
-5.51525e-12
-2.09458e-11
-8.07179e-11
-3.59532e-10
-1.80134e-09
-8.75603e-09
-2.79137e-08
-4.86324e-08
-3.31339e-12
-8.91012e-12
-1.50375e-12
1.12683e-10
6.97812e-10
2.14611e-09
7.76038e-09
-1.63106e-08
)
;
    }
    back
    {
        type            cyclic;
        value           nonuniform List<scalar> 
32
(
1.55056e-13
-1.28573e-12
-6.7145e-11
-5.16263e-10
-2.59738e-09
-9.15628e-09
-2.3981e-08
-4.30735e-08
2.85171e-12
8.78919e-12
2.9876e-12
-7.48453e-11
-1.413e-10
1.71758e-09
1.12205e-08
-2.66514e-08
5.51525e-12
2.09458e-11
8.07179e-11
3.59532e-10
1.80134e-09
8.75603e-09
2.79137e-08
4.86324e-08
3.31339e-12
8.91012e-12
1.50375e-12
-1.12683e-10
-6.97812e-10
-2.14611e-09
-7.76038e-09
1.63106e-08
)
;
    }
    procBoundary0to1
    {
        type            processor;
        value           nonuniform List<scalar> 
64
(
6.08195e-08
1.12055e-06
1.85899e-05
0.000289381
0.00413448
0.0523459
0.55304
4.34363
6.08763e-08
1.12123e-06
1.85963e-05
0.000289431
0.00413477
0.0523471
0.553043
4.34363
6.09403e-08
1.12206e-06
1.86042e-05
0.000289491
0.00413513
0.0523485
0.553046
4.34363
6.09813e-08
1.12257e-06
1.8609e-05
0.000289529
0.00413535
0.0523494
0.553048
4.34363
6.0987e-08
1.12264e-06
1.86096e-05
0.000289533
0.00413537
0.0523495
0.553048
4.34363
6.09546e-08
1.12223e-06
1.86057e-05
0.000289502
0.00413518
0.0523487
0.553046
4.34363
6.08878e-08
1.1214e-06
1.85979e-05
0.000289441
0.00413482
0.0523472
0.553043
4.34363
6.08259e-08
1.12062e-06
1.85906e-05
0.000289385
0.0041345
0.052346
0.55304
4.34363
)
;
    }
    procBoundary0to1throughstreamwiseIn
    {
        type            processorCyclic;
        value           nonuniform List<scalar> 
64
(
-6.08163e-08
-1.12055e-06
-1.85899e-05
-0.000289381
-0.00413448
-0.0523459
-0.55304
-4.34363
-6.08743e-08
-1.12123e-06
-1.85963e-05
-0.000289431
-0.00413477
-0.0523471
-0.553043
-4.34363
-6.0941e-08
-1.12206e-06
-1.86042e-05
-0.000289491
-0.00413513
-0.0523485
-0.553046
-4.34363
-6.09808e-08
-1.12257e-06
-1.8609e-05
-0.000289529
-0.00413535
-0.0523494
-0.553048
-4.34363
-6.09862e-08
-1.12264e-06
-1.86096e-05
-0.000289533
-0.00413537
-0.0523495
-0.553048
-4.34363
-6.09541e-08
-1.12223e-06
-1.86057e-05
-0.000289502
-0.00413518
-0.0523487
-0.553046
-4.34363
-6.08886e-08
-1.12141e-06
-1.85979e-05
-0.000289441
-0.00413482
-0.0523472
-0.553043
-4.34363
-6.08242e-08
-1.12062e-06
-1.85906e-05
-0.000289385
-0.0041345
-0.052346
-0.55304
-4.34363
)
;
    }
}


// ************************************************************************* //
