/*--------------------------------*- C++ -*----------------------------------*\
| =========                 |                                                 |
| \\      /  F ield         | OpenFOAM: The Open Source CFD Toolbox           |
|  \\    /   O peration     | Version:  2112                                  |
|   \\  /    A nd           | Website:  www.openfoam.com                      |
|    \\/     M anipulation  |                                                 |
\*---------------------------------------------------------------------------*/
FoamFile
{
    version     2.0;
    format      ascii;
    arch        "LSB;label=32;scalar=64";
    class       surfaceScalarField;
    location    "5";
    object      phi_0;
}
// * * * * * * * * * * * * * * * * * * * * * * * * * * * * * * * * * * * * * //

dimensions      [0 3 -1 0 0 0 0];

oriented        oriented;

internalField   nonuniform List<scalar> 
640
(
2.27049e-08
3.04413e-11
-3.35687e-12
2.26754e-08
3.32957e-11
-5.75076e-12
2.27042e-08
-3.30089e-11
1.07896e-12
-3.36095e-11
1.40085e-12
4.46249e-07
1.71347e-10
-2.06949e-11
4.46122e-07
1.79692e-10
-2.66597e-11
4.46248e-07
-1.86579e-10
1.44229e-11
-1.8611e-10
2.17245e-11
8.00928e-06
7.70761e-10
-1.02575e-10
8.00884e-06
7.5601e-10
-1.43703e-10
8.0093e-06
-8.23743e-10
1.25072e-10
-8.15497e-10
1.73989e-10
0.000136772
2.5323e-09
-6.08543e-10
0.000136771
2.38974e-09
-8.34911e-10
0.000136772
-2.52156e-09
6.92882e-10
-2.49387e-09
9.98677e-10
0.00218104
4.37924e-09
-3.04954e-09
0.00218104
4.45332e-09
-4.15385e-09
0.00218104
-3.76026e-09
2.90129e-09
-4.068e-09
4.48712e-09
0.0314921
-3.44506e-10
-1.06957e-08
0.0314921
2.48454e-09
-1.53022e-08
0.0314921
1.82015e-09
8.88012e-09
-5.24587e-10
1.55182e-08
0.389702
-1.00933e-08
-1.09093e-08
0.389702
-4.26163e-09
-1.87399e-08
0.389702
7.313e-09
9.78638e-09
2.78773e-09
2.1539e-08
3.69385
-1.8158e-09
3.69385
-9.91054e-09
3.69385
1.58938e-09
9.46776e-09
2.27365e-08
2.51095e-11
-3.99379e-12
2.27104e-08
2.60902e-11
-5.73239e-12
2.2736e-08
-2.94661e-11
4.92712e-12
-2.78111e-11
4.43717e-12
4.46612e-07
1.40426e-10
-2.79387e-11
4.46503e-07
1.39726e-10
-3.1933e-11
4.46618e-07
-1.61482e-10
3.13503e-11
-1.43578e-10
3.547e-11
8.01275e-06
6.32081e-10
-1.66628e-10
8.01236e-06
5.79722e-10
-2.00982e-10
8.01279e-06
-6.89411e-10
2.23481e-10
-5.92775e-10
2.42901e-10
0.000136799
2.0478e-09
-1.11025e-09
0.000136799
1.82417e-09
-1.28093e-09
0.000136799
-2.06854e-09
1.1651e-09
-1.67648e-09
1.27694e-09
0.00218121
3.71008e-09
-5.62396e-09
0.00218121
3.70359e-09
-6.29819e-09
0.00218121
-3.26635e-09
5.23231e-09
-2.91153e-09
5.76603e-09
0.0314928
4.41046e-10
-1.87246e-08
0.0314928
1.41613e-09
-2.00134e-08
0.0314927
9.27133e-10
1.7504e-08
-4.20115e-10
1.85063e-08
0.389703
-9.05975e-09
-3.36873e-08
0.389703
-7.09151e-09
-3.2951e-08
0.389703
7.37518e-09
3.79517e-08
4.72001e-09
3.67829e-08
3.69385
-5.3456e-09
3.69385
2.76868e-08
3.69385
4.2726e-09
-3.13391e-08
2.27736e-08
1.76992e-11
-1.69068e-12
2.27537e-08
1.62757e-11
-2.02252e-12
2.27758e-08
-2.0867e-11
3.62335e-12
-1.8754e-11
4.96895e-12
4.47059e-07
9.28235e-11
-1.92199e-11
4.46977e-07
8.4209e-11
-1.82912e-11
4.47069e-07
-1.10425e-10
2.91011e-11
-8.54832e-11
2.80715e-11
8.01697e-06
4.21375e-10
-1.39901e-10
8.01668e-06
3.07874e-10
-1.37448e-10
8.01702e-06
-4.13491e-10
1.82054e-10
-3.11732e-10
1.71455e-10
0.000136832
1.25031e-09
-9.87714e-10
0.000136832
8.49296e-10
-9.56637e-10
0.000136833
-1.10221e-09
9.13155e-10
-7.48609e-10
8.37333e-10
0.00218141
1.57653e-09
-4.94762e-09
0.00218141
1.41222e-09
-4.63778e-09
0.00218141
-1.2124e-09
4.34867e-09
-1.00743e-09
3.79266e-09
0.0314936
-1.41291e-09
-1.65917e-08
0.0314936
1.65393e-09
-1.43039e-08
0.0314936
1.55693e-09
1.61182e-08
-1.68905e-09
1.27098e-08
0.389705
-5.63578e-09
-2.63376e-08
0.389705
3.14431e-09
-1.20821e-08
0.389705
4.84818e-09
3.25073e-08
-3.74771e-09
1.55084e-08
3.69385
-3.76262e-08
3.69385
1.59365e-09
3.69385
3.38761e-08
-3.95986e-09
2.27988e-08
1.22932e-11
1.46611e-12
2.2784e-08
1.07362e-11
2.01483e-12
2.27991e-08
-1.37644e-11
2.34356e-12
-1.18366e-11
2.10834e-12
4.47343e-07
5.443e-11
6.89177e-13
4.47281e-07
4.91761e-11
5.66333e-12
4.47352e-07
-6.68389e-11
1.14644e-11
-4.42973e-11
6.4552e-12
8.01959e-06
2.25722e-10
-3.18917e-11
8.01937e-06
1.28495e-10
3.42159e-12
8.01964e-06
-1.90542e-10
4.24401e-11
-1.16249e-10
7.26913e-12
0.000136853
4.79124e-10
-3.03749e-10
0.000136852
1.99285e-10
-7.44478e-11
0.000136853
-3.57004e-10
1.45731e-10
-1.62643e-10
-7.27082e-11
0.00218153
-4.16237e-11
-1.47426e-09
0.00218152
4.47844e-10
-1.71535e-10
0.00218153
3.28469e-11
8.50311e-10
-5.35328e-10
-3.93716e-10
0.0314941
-3.28608e-09
-4.94773e-09
0.0314941
1.46165e-09
1.24488e-09
0.0314941
2.53989e-09
4.56608e-09
-2.43723e-09
-1.30531e-09
0.389706
-6.96136e-09
-1.22448e-08
0.389706
4.827e-09
7.62558e-09
0.389706
8.09759e-09
1.47202e-08
-3.55397e-09
-4.63616e-09
3.69385
-2.70751e-08
3.69385
-4.02211e-09
3.69385
2.50244e-08
2.3658e-09
2.2803e-08
1.19401e-11
3.87166e-12
2.27882e-08
1.1762e-11
5.06121e-12
2.28021e-08
-1.11201e-11
-3.62322e-13
-1.06281e-11
-1.82761e-12
4.47387e-07
4.85158e-11
2.05063e-11
4.47324e-07
5.35678e-11
2.69803e-11
4.47389e-07
-5.27156e-11
-1.21959e-11
-4.03056e-11
-1.84631e-11
8.01996e-06
1.78111e-10
9.37465e-11
8.01973e-06
1.41492e-10
1.44118e-10
8.01997e-06
-1.31289e-10
-1.18928e-10
-1.16969e-10
-1.60138e-10
0.000136855
2.08165e-10
5.56538e-10
0.000136854
2.36544e-10
8.51596e-10
0.000136855
-1.85683e-10
-6.99744e-10
-2.64238e-10
-9.36989e-10
0.00218154
-8.54186e-10
2.83295e-09
0.00218154
6.02804e-10
4.33543e-09
0.00218154
4.54577e-10
-3.16209e-09
-1.06796e-09
-4.336e-09
0.0314941
-4.80588e-09
9.58969e-09
0.0314941
1.89932e-09
1.56498e-08
0.0314941
3.63069e-09
-9.81397e-09
-3.17646e-09
-1.42801e-08
0.389706
-8.44732e-09
8.81366e-09
0.389706
5.87467e-09
2.08465e-08
0.389706
1.06292e-08
-1.13968e-08
-3.44783e-09
-1.98593e-08
3.69385
7.10763e-09
3.69385
-8.12986e-09
3.69385
-4.82738e-09
6.7515e-09
2.27844e-08
1.66017e-11
4.14199e-12
2.27652e-08
1.88766e-11
5.45142e-12
2.27819e-08
-1.43729e-11
-2.68838e-12
-1.58866e-11
-4.7548e-12
4.47166e-07
7.79769e-11
2.88406e-11
4.47083e-07
9.58932e-11
3.32672e-11
4.47161e-07
-7.51294e-11
-2.96035e-11
-7.5586e-11
-3.40065e-11
8.01788e-06
2.95712e-10
1.70374e-10
8.01757e-06
3.43298e-10
2.0454e-10
8.01786e-06
-2.63338e-10
-2.1669e-10
-3.12969e-10
-2.39155e-10
0.000136839
5.79203e-10
1.11817e-09
0.000136838
9.18998e-10
1.28436e-09
0.000136838
-6.68695e-10
-1.14106e-09
-9.78312e-10
-1.27855e-09
0.00218144
-4.87776e-10
5.59591e-09
0.00218143
1.50622e-09
6.2713e-09
0.00218144
-2.08088e-10
-5.17318e-09
-2.12962e-09
-5.85325e-09
0.0314937
-4.82879e-09
1.85724e-08
0.0314937
1.40263e-09
2.01833e-08
0.0314937
3.59585e-09
-1.72801e-08
-2.71208e-09
-1.9107e-08
0.389705
-6.6671e-09
3.39441e-08
0.389705
3.3684e-09
3.27647e-08
0.389705
8.53353e-09
-3.80488e-08
-1.29717e-09
-3.67359e-08
3.69385
4.08354e-09
3.69385
-1.41056e-08
3.69385
1.36244e-09
1.3499e-08
2.27461e-08
2.41408e-11
2.07335e-12
2.27195e-08
2.9164e-11
2.89707e-12
2.27444e-08
-2.1913e-11
-5.58349e-12
-2.45325e-11
-4.4469e-12
4.4672e-07
1.27041e-10
1.99438e-11
4.4661e-07
1.54431e-10
1.82444e-11
4.46711e-07
-1.21896e-10
-3.0727e-11
-1.30726e-10
-3.14965e-11
8.01367e-06
5.16813e-10
1.49241e-10
8.01327e-06
6.25959e-10
1.37537e-10
8.01364e-06
-5.2982e-10
-1.84808e-10
-5.80822e-10
-1.86175e-10
0.000136806
1.42057e-09
1.04182e-09
0.000136805
1.90854e-09
9.39642e-10
0.000136805
-1.62849e-09
-8.98992e-10
-1.86671e-09
-9.01283e-10
0.00218124
1.63627e-09
5.18482e-09
0.00218124
3.71817e-09
4.42389e-09
0.00218124
-2.32085e-09
-4.10049e-09
-3.94625e-09
-3.92073e-09
0.0314928
-3.94502e-09
1.79096e-08
0.0314928
2.06654e-09
1.30049e-08
0.0314928
3.66976e-09
-1.53741e-08
-2.79399e-09
-1.30819e-08
0.389703
-1.26263e-08
2.79997e-08
0.389703
-2.20824e-09
1.06971e-08
0.389703
1.34502e-08
-3.05204e-08
2.35654e-09
-1.82271e-08
3.69385
4.09681e-08
3.69385
-1.65662e-08
3.69385
-3.94091e-08
2.08185e-08
2.27101e-08
3.0573e-11
2.26797e-08
3.52212e-11
2.27069e-08
-2.96286e-11
-3.17076e-11
4.46292e-07
1.6929e-10
4.46165e-07
1.86741e-10
4.46284e-07
-1.65774e-10
-1.80793e-10
8.00965e-06
7.37059e-10
8.00921e-06
7.77754e-10
8.00964e-06
-7.33356e-10
-8.16839e-10
0.000136774
2.29554e-09
0.000136774
2.43135e-09
0.000136774
-2.24815e-09
-2.60005e-09
0.00218105
3.50812e-09
0.00218105
4.55892e-09
0.00218105
-3.22623e-09
-4.65686e-09
0.0314921
-9.08862e-10
0.0314921
1.30385e-09
0.0314921
2.14331e-09
-7.27773e-10
0.389702
-8.98528e-09
0.389702
-8.44709e-09
0.389702
8.11929e-09
7.08658e-09
3.69385
3.69385
3.69385
)
;

boundaryField
{
    movingWall
    {
        type            calculated;
        value           uniform 0;
    }
    CPLReceiveMD
    {
        type            calculated;
        value           uniform 0;
    }
    streamwiseIn
    {
        type            cyclic;
        value           nonuniform List<scalar> 0();
    }
    streamwiseOut
    {
        type            cyclic;
        value           nonuniform List<scalar> 0();
    }
    front
    {
        type            cyclic;
        value           nonuniform List<scalar> 
32
(
-2.56165e-12
-1.81842e-12
2.80272e-11
2.94181e-10
1.48532e-09
4.90118e-09
1.22347e-08
1.983e-08
-1.97118e-12
-6.97991e-12
-7.16872e-12
7.13648e-11
2.23403e-10
-5.5625e-10
-7.52469e-09
2.26924e-08
-3.15183e-12
-1.3523e-11
-5.1309e-11
-1.76552e-10
-8.86216e-10
-4.58942e-09
-1.506e-08
-2.21279e-08
-2.00769e-12
-7.4725e-12
-8.35455e-12
7.81237e-11
4.59942e-10
1.07636e-09
4.33635e-09
-1.68094e-08
)
;
    }
    back
    {
        type            cyclic;
        value           nonuniform List<scalar> 
32
(
2.56165e-12
1.81842e-12
-2.80272e-11
-2.94181e-10
-1.48532e-09
-4.90118e-09
-1.22347e-08
-1.983e-08
1.97118e-12
6.97991e-12
7.16872e-12
-7.13648e-11
-2.23403e-10
5.5625e-10
7.52469e-09
-2.26924e-08
3.15183e-12
1.3523e-11
5.1309e-11
1.76552e-10
8.86216e-10
4.58942e-09
1.506e-08
2.21279e-08
2.00769e-12
7.4725e-12
8.35455e-12
-7.81237e-11
-4.59942e-10
-1.07636e-09
-4.33635e-09
1.68094e-08
)
;
    }
    procBoundary0to1
    {
        type            processor;
        value           nonuniform List<scalar> 
64
(
2.27344e-08
4.46371e-07
8.00975e-06
0.000136773
0.00218104
0.031492
0.389702
3.69385
2.27607e-08
4.4672e-07
8.01317e-06
0.0001368
0.00218121
0.0314927
0.389703
3.69385
2.27941e-08
4.47143e-07
8.01732e-06
0.000136833
0.00218141
0.0314936
0.389705
3.69385
2.28138e-08
4.47406e-07
8.01987e-06
0.000136854
0.00218153
0.0314941
0.389706
3.69385
2.28167e-08
4.47444e-07
8.02022e-06
0.000136856
0.00218154
0.0314941
0.389706
3.69385
2.28008e-08
4.47236e-07
8.01818e-06
0.000136839
0.00218144
0.0314937
0.389705
3.69385
2.27686e-08
4.46815e-07
8.01404e-06
0.000136806
0.00218124
0.0314928
0.389703
3.69385
2.2736e-08
4.46409e-07
8.0101e-06
0.000136775
0.00218105
0.0314921
0.389702
3.69385
)
;
    }
    procBoundary0to1throughstreamwiseIn
    {
        type            processorCyclic;
        value           nonuniform List<scalar> 
64
(
-2.27344e-08
-4.46371e-07
-8.00975e-06
-0.000136773
-0.00218104
-0.031492
-0.389702
-3.69385
-2.27609e-08
-4.4672e-07
-8.01317e-06
-0.0001368
-0.00218121
-0.0314927
-0.389703
-3.69385
-2.27936e-08
-4.47142e-07
-8.01732e-06
-0.000136833
-0.00218141
-0.0314936
-0.389705
-3.69385
-2.28142e-08
-4.47406e-07
-8.01987e-06
-0.000136854
-0.00218153
-0.0314941
-0.389706
-3.69385
-2.28173e-08
-4.47443e-07
-8.02022e-06
-0.000136856
-0.00218154
-0.0314941
-0.389706
-3.69385
-2.28013e-08
-4.47236e-07
-8.01818e-06
-0.000136839
-0.00218144
-0.0314937
-0.389705
-3.69385
-2.27682e-08
-4.46814e-07
-8.01404e-06
-0.000136806
-0.00218124
-0.0314928
-0.389703
-3.69385
-2.27362e-08
-4.46409e-07
-8.0101e-06
-0.000136775
-0.00218105
-0.0314921
-0.389702
-3.69385
)
;
    }
}


// ************************************************************************* //
