/*--------------------------------*- C++ -*----------------------------------*\
| =========                 |                                                 |
| \\      /  F ield         | OpenFOAM: The Open Source CFD Toolbox           |
|  \\    /   O peration     | Version:  2112                                  |
|   \\  /    A nd           | Website:  www.openfoam.com                      |
|    \\/     M anipulation  |                                                 |
\*---------------------------------------------------------------------------*/
FoamFile
{
    version     2.0;
    format      ascii;
    arch        "LSB;label=32;scalar=64";
    class       volVectorField;
    location    "5";
    object      U;
}
// * * * * * * * * * * * * * * * * * * * * * * * * * * * * * * * * * * * * * //

dimensions      [0 1 -1 0 0 0 0];

internalField   nonuniform List<vector> 
256
(
(5.10861e-09 5.44798e-12 -1.6602e-13)
(5.10354e-09 5.49083e-12 -3.65505e-13)
(5.10365e-09 -1.04899e-12 6.75676e-14)
(5.10926e-09 -7.13634e-13 2.69591e-13)
(9.41492e-08 3.07383e-11 -1.95912e-12)
(9.41268e-08 2.96505e-11 -3.09516e-12)
(9.41278e-08 -1.39588e-11 -1.65697e-13)
(9.41502e-08 -1.22129e-11 1.1586e-12)
(1.56199e-06 1.22233e-10 -7.70102e-12)
(1.56192e-06 1.14173e-10 -1.47985e-11)
(1.56193e-06 -1.03381e-10 3.18697e-12)
(1.562e-06 -9.41662e-11 1.25648e-11)
(2.4315e-05 4.25386e-10 -3.20559e-11)
(2.43151e-05 3.75084e-10 -7.14301e-11)
(2.43151e-05 -4.83549e-10 2.37495e-11)
(2.43151e-05 -4.35367e-10 8.41207e-11)
(0.000347398 1.15193e-09 -1.29903e-10)
(0.000347399 9.21292e-10 -3.23646e-10)
(0.000347399 -1.32781e-09 7.9465e-11)
(0.000347398 -1.13863e-09 4.04806e-10)
(0.00439835 1.28577e-09 -3.30939e-10)
(0.00439835 1.04698e-09 -1.15993e-09)
(0.00439835 -1.00379e-09 1.11899e-11)
(0.00439835 -8.55296e-10 1.37567e-09)
(0.046469 -2.85506e-09 9.03254e-10)
(0.046469 1.61842e-10 -1.64841e-09)
(0.046469 3.08743e-09 -1.32038e-09)
(0.046469 4.48751e-10 2.063e-09)
(0.364972 -2.87784e-09 1.1209e-09)
(0.364972 -1.23942e-09 6.55389e-10)
(0.364972 2.80523e-09 -9.60982e-10)
(0.364972 1.53789e-09 -2.96061e-11)
(5.11377e-09 4.69416e-12 -1.52341e-13)
(5.10853e-09 4.3798e-12 1.16118e-13)
(5.10929e-09 -7.57672e-13 1.05594e-12)
(5.11464e-09 -4.64052e-13 1.65068e-12)
(9.42065e-08 2.69977e-11 -4.5746e-12)
(9.41869e-08 2.43128e-11 -5.76661e-12)
(9.4189e-08 -1.09149e-11 3.27595e-12)
(9.42084e-08 -7.70002e-12 4.28161e-12)
(1.56253e-06 1.04104e-10 -2.6036e-11)
(1.56247e-06 8.8571e-11 -3.35836e-11)
(1.56248e-06 -8.52406e-11 2.44173e-11)
(1.56254e-06 -6.48578e-11 3.10559e-11)
(2.43192e-05 3.43724e-10 -1.38443e-10)
(2.43192e-05 2.62714e-10 -1.79907e-10)
(2.43192e-05 -4.0919e-10 1.43726e-10)
(2.43192e-05 -3.0156e-10 1.83791e-10)
(0.000347423 8.94713e-10 -6.31427e-10)
(0.000347423 5.59035e-10 -8.16999e-10)
(0.000347423 -1.13307e-09 6.38671e-10)
(0.000347422 -7.02937e-10 8.4038e-10)
(0.00439845 1.25901e-09 -2.04689e-09)
(0.00439845 7.92753e-10 -2.64819e-09)
(0.00439845 -1.03122e-09 1.98405e-09)
(0.00439844 -4.55523e-10 2.72708e-09)
(0.0464692 -2.29888e-09 -2.99833e-09)
(0.0464692 -5.8685e-10 -4.05852e-09)
(0.0464692 2.74182e-09 3.27425e-09)
(0.0464692 8.54384e-10 4.65072e-09)
(0.364972 -3.01491e-09 -2.00148e-10)
(0.364972 -1.43513e-09 4.26443e-10)
(0.364972 3.11963e-09 -2.25793e-11)
(0.364972 1.31496e-09 -1.44992e-09)
(5.11961e-09 3.74683e-12 -3.68547e-13)
(5.1159e-09 3.21937e-12 -3.64507e-13)
(5.1163e-09 -3.57896e-13 1.48719e-12)
(5.12002e-09 1.9932e-13 1.13155e-12)
(9.42765e-08 2.11388e-11 -4.63768e-12)
(9.42617e-08 1.71449e-11 -5.15053e-12)
(9.42644e-08 -5.40552e-12 4.20952e-12)
(9.42792e-08 -1.39498e-12 4.49704e-12)
(1.56319e-06 7.26499e-11 -3.00953e-11)
(1.56314e-06 4.96806e-11 -3.32678e-11)
(1.56315e-06 -5.13604e-11 2.82651e-11)
(1.56321e-06 -2.76843e-11 2.94055e-11)
(2.43243e-05 2.01021e-10 -1.67096e-10)
(2.43242e-05 8.50573e-11 -1.83623e-10)
(2.43242e-05 -2.559e-10 1.67291e-10)
(2.43244e-05 -1.35742e-10 1.716e-10)
(0.000347453 4.40778e-10 -7.75637e-10)
(0.000347453 1.07421e-11 -8.38824e-10)
(0.000347452 -6.41844e-10 7.86445e-10)
(0.000347453 -2.00257e-10 7.82637e-10)
(0.00439857 3.66746e-10 -2.54171e-09)
(0.00439857 -1.04234e-10 -2.6187e-09)
(0.00439856 1.43333e-11 2.61088e-09)
(0.00439857 5.06126e-10 2.41633e-09)
(0.0464694 -2.00376e-09 -4.62442e-09)
(0.0464694 1.56123e-09 -3.70193e-09)
(0.0464694 2.11533e-09 5.40238e-09)
(0.0464694 -1.43759e-09 3.96564e-09)
(0.364972 -2.44719e-09 -4.23822e-09)
(0.364972 1.09588e-09 2.59524e-09)
(0.364972 2.07911e-09 3.18571e-09)
(0.364972 -1.49302e-09 -3.34852e-09)
(5.12317e-09 3.06513e-12 -1.82847e-13)
(5.12041e-09 2.55095e-12 -1.40869e-13)
(5.1208e-09 1.92972e-13 5.89117e-13)
(5.1236e-09 7.47178e-13 4.77751e-13)
(9.43206e-08 1.59863e-11 -2.16689e-12)
(9.43095e-08 1.21211e-11 -1.69769e-12)
(9.43122e-08 -1.06157e-12 2.72479e-12)
(9.43231e-08 2.72076e-12 2.20438e-12)
(1.5636e-06 4.39326e-11 -1.76225e-11)
(1.56356e-06 2.24741e-11 -1.40052e-11)
(1.56357e-06 -2.48377e-11 1.51938e-11)
(1.56362e-06 -2.97045e-12 1.14843e-11)
(2.43275e-05 6.74726e-11 -1.01741e-10)
(2.43273e-05 -3.54996e-11 -7.68596e-11)
(2.43273e-05 -1.28257e-10 9.11457e-11)
(2.43275e-05 -2.27234e-11 6.61716e-11)
(0.000347471 1.13726e-11 -4.87417e-10)
(0.00034747 -3.37915e-10 -3.33027e-10)
(0.00034747 -2.24099e-10 4.51889e-10)
(0.000347471 1.23598e-10 2.93696e-10)
(0.00439864 -1.93246e-10 -1.66933e-09)
(0.00439864 -1.89171e-10 -8.79851e-10)
(0.00439864 7.05362e-10 1.62754e-09)
(0.00439864 6.45337e-10 8.14563e-10)
(0.0464696 -2.97799e-09 -3.10771e-09)
(0.0464696 1.92997e-09 -3.93143e-12)
(0.0464696 2.87942e-09 3.52031e-09)
(0.0464696 -1.98857e-09 2.1793e-10)
(0.364972 -3.6484e-09 -7.1419e-09)
(0.364972 1.62727e-09 -9.03289e-10)
(0.364972 2.9198e-09 6.35292e-09)
(0.364972 -2.299e-09 2.17602e-10)
(5.12372e-09 2.9895e-12 2.35857e-13)
(5.1211e-09 2.61664e-12 3.98749e-13)
(5.12136e-09 4.12851e-13 1.59655e-14)
(5.12403e-09 8.19644e-13 -1.62831e-13)
(9.43269e-08 1.46817e-11 1.53594e-12)
(9.43164e-08 1.2009e-11 2.69413e-12)
(9.43182e-08 -2.04179e-14 -1.56421e-14)
(9.43287e-08 2.66179e-12 -1.14207e-12)
(1.56366e-06 3.57704e-11 5.6154e-12)
(1.56362e-06 2.18444e-11 1.36939e-11)
(1.56363e-06 -1.86113e-11 -4.15984e-12)
(1.56367e-06 -3.99392e-12 -1.15027e-11)
(2.43279e-05 2.69848e-11 2.28631e-11)
(2.43277e-05 -3.30288e-11 7.1971e-11)
(2.43277e-05 -9.41209e-11 -2.93803e-11)
(2.43279e-05 -3.12878e-11 -7.57781e-11)
(0.000347473 -1.41056e-10 8.73567e-11)
(0.000347472 -2.83631e-10 3.51348e-10)
(0.000347472 -7.14846e-11 -1.20819e-10)
(0.000347473 7.3981e-11 -3.71025e-10)
(0.00439865 -6.13033e-10 1.46802e-10)
(0.00439864 8.8283e-11 1.31109e-09)
(0.00439864 1.16092e-09 -1.51643e-10)
(0.00439864 4.08776e-10 -1.2259e-09)
(0.0464696 -3.90316e-09 -1.22683e-09)
(0.0464696 2.17645e-09 1.84923e-09)
(0.0464696 3.6217e-09 9.9068e-10)
(0.0464696 -2.38332e-09 -1.84364e-09)
(0.364972 -4.41427e-09 -1.29078e-09)
(0.364972 1.54515e-09 -6.33269e-10)
(0.364972 3.45419e-09 7.43516e-10)
(0.364972 -2.40768e-09 3.05868e-11)
(5.12094e-09 3.55118e-12 4.65709e-13)
(5.11763e-09 3.40701e-12 7.06468e-13)
(5.1177e-09 1.84124e-13 -6.06522e-13)
(5.12105e-09 3.83726e-13 -7.67369e-13)
(9.42922e-08 1.79794e-11 4.47874e-12)
(9.42787e-08 1.70412e-11 5.79199e-12)
(9.42794e-08 -2.60004e-12 -2.79247e-12)
(9.42929e-08 -1.46622e-12 -3.87019e-12)
(1.56333e-06 5.18324e-11 2.57152e-11)
(1.56328e-06 4.81309e-11 3.43575e-11)
(1.56328e-06 -3.57148e-11 -2.19214e-11)
(1.56333e-06 -3.06125e-11 -2.84257e-11)
(2.43252e-05 9.78086e-11 1.33404e-10)
(2.43251e-05 8.95314e-11 1.83807e-10)
(2.43251e-05 -1.71526e-10 -1.37885e-10)
(2.43252e-05 -1.55854e-10 -1.74101e-10)
(0.000347457 5.95307e-11 6.05682e-10)
(0.000347457 1.20733e-10 8.51238e-10)
(0.000347457 -2.71628e-10 -6.42781e-10)
(0.000347457 -3.0207e-10 -8.05065e-10)
(0.00439858 -6.47663e-10 1.9366e-09)
(0.00439858 3.83294e-10 2.79638e-09)
(0.00439858 1.08405e-09 -1.99738e-09)
(0.00439858 8.24341e-11 -2.5342e-09)
(0.0464695 -3.85652e-09 2.74639e-09)
(0.0464694 1.65621e-09 4.19503e-09)
(0.0464695 3.45829e-09 -3.50109e-09)
(0.0464695 -2.03968e-09 -4.33444e-09)
(0.364972 -3.8406e-09 4.08452e-10)
(0.364972 5.19588e-10 -1.19495e-09)
(0.364972 2.85698e-09 -8.79682e-11)
(0.364972 -1.49431e-09 8.123e-10)
(5.11527e-09 4.51074e-12 2.98712e-13)
(5.11079e-09 4.54136e-12 3.31265e-13)
(5.11068e-09 -3.70734e-13 -1.57072e-12)
(5.11516e-09 -3.10484e-13 -1.23831e-12)
(9.42223e-08 2.40341e-11 5.06086e-12)
(9.42041e-08 2.44679e-11 5.55157e-12)
(9.42041e-08 -7.87803e-12 -4.02817e-12)
(9.42222e-08 -7.54164e-12 -4.51356e-12)
(1.56267e-06 8.35225e-11 3.2181e-11)
(1.56261e-06 8.77725e-11 3.43724e-11)
(1.56261e-06 -6.86484e-11 -2.72922e-11)
(1.56267e-06 -6.70399e-11 -3.04675e-11)
(2.43201e-05 2.41926e-10 1.76288e-10)
(2.43201e-05 2.69408e-10 1.83082e-10)
(2.43201e-05 -3.2421e-10 -1.6166e-10)
(2.43201e-05 -3.18823e-10 -1.79943e-10)
(0.000347427 5.31229e-10 8.18182e-10)
(0.000347427 6.80656e-10 8.11121e-10)
(0.000347427 -7.64697e-10 -7.45092e-10)
(0.000347427 -7.96859e-10 -8.16419e-10)
(0.00439846 2.11763e-10 2.72584e-09)
(0.00439846 1.29206e-09 2.46754e-09)
(0.00439846 6.82822e-11 -2.47044e-09)
(0.00439846 -8.6472e-10 -2.5661e-09)
(0.0464692 -4.78117e-09 4.94798e-09)
(0.0464692 3.70731e-10 3.5011e-09)
(0.0464692 4.61665e-09 -5.07269e-09)
(0.0464692 -8.07666e-10 -4.185e-09)
(0.364972 -4.77033e-09 4.40809e-09)
(0.364972 -1.18112e-09 -2.61736e-09)
(0.364972 4.14969e-09 -2.96825e-09)
(0.364972 2.72789e-10 3.34754e-09)
(5.10961e-09 5.38259e-12 -1.30519e-13)
(5.10381e-09 5.42131e-12 -6.81714e-13)
(5.1042e-09 -6.61876e-13 -1.03854e-12)
(5.11009e-09 -7.81004e-13 -1.36106e-12)
(9.41556e-08 2.97952e-11 2.26276e-12)
(9.41337e-08 2.9657e-11 1.67232e-12)
(9.4134e-08 -1.20582e-11 -3.20826e-12)
(9.41556e-08 -1.22345e-11 -2.61579e-12)
(1.56205e-06 1.15252e-10 1.79433e-11)
(1.56198e-06 1.13879e-10 1.32312e-11)
(1.56198e-06 -9.40996e-11 -1.76897e-11)
(1.56205e-06 -9.55834e-11 -1.41144e-11)
(2.43154e-05 3.89055e-10 1.06779e-10)
(2.43154e-05 3.77073e-10 7.29597e-11)
(2.43154e-05 -4.37515e-10 -9.69866e-11)
(2.43154e-05 -4.46806e-10 -7.5861e-11)
(0.0003474 1.0076e-09 5.13161e-10)
(0.000347401 9.61995e-10 2.98786e-10)
(0.000347401 -1.13061e-09 -4.4778e-10)
(0.000347399 -1.18109e-09 -3.29013e-10)
(0.00439835 9.0441e-10 1.77961e-09)
(0.00439836 1.29289e-09 7.31656e-10)
(0.00439836 -5.41897e-10 -1.61421e-09)
(0.00439835 -1.07892e-09 -1.00745e-09)
(0.046469 -3.19397e-09 3.35965e-09)
(0.046469 -8.00656e-10 -1.3259e-10)
(0.046469 3.36702e-09 -3.29348e-09)
(0.046469 8.57147e-10 -5.34219e-10)
(0.364972 -3.26999e-09 6.9336e-09)
(0.364972 -2.51209e-09 1.6718e-09)
(0.364972 3.04701e-09 -6.24237e-09)
(0.364972 2.23109e-09 4.20016e-10)
)
;

boundaryField
{
    movingWall
    {
        type            fixedValue;
        value           uniform (1 0 0);
    }
    CPLReceiveMD
    {
        type            fixedValue;
        value           uniform (0 0 0);
    }
    streamwiseIn
    {
        type            cyclic;
    }
    streamwiseOut
    {
        type            cyclic;
    }
    front
    {
        type            cyclic;
    }
    back
    {
        type            cyclic;
    }
    procBoundary0to1
    {
        type            processor;
        value           nonuniform List<vector> 
64
(
(5.10969e-09 5.43928e-12 -1.69578e-13)
(9.41491e-08 3.07313e-11 -1.95832e-12)
(1.56199e-06 1.22233e-10 -7.7011e-12)
(2.4315e-05 4.25385e-10 -3.20559e-11)
(0.000347398 1.15193e-09 -1.29903e-10)
(0.00439835 1.28577e-09 -3.30938e-10)
(0.046469 -2.85506e-09 9.03254e-10)
(0.364972 -2.87784e-09 1.1209e-09)
(5.114e-09 4.68864e-12 -1.62272e-13)
(9.42064e-08 2.69935e-11 -4.5762e-12)
(1.56253e-06 1.04105e-10 -2.6037e-11)
(2.43192e-05 3.43723e-10 -1.38444e-10)
(0.000347423 8.94713e-10 -6.31427e-10)
(0.00439845 1.25901e-09 -2.04689e-09)
(0.0464692 -2.29888e-09 -2.99833e-09)
(0.364972 -3.01491e-09 -2.00148e-10)
(5.11962e-09 3.74315e-12 -3.72223e-13)
(9.42764e-08 2.11361e-11 -4.63678e-12)
(1.56319e-06 7.26509e-11 -3.00957e-11)
(2.43243e-05 2.01021e-10 -1.67096e-10)
(0.000347453 4.40778e-10 -7.75637e-10)
(0.00439857 3.66746e-10 -2.54171e-09)
(0.0464694 -2.00376e-09 -4.62442e-09)
(0.364972 -2.44719e-09 -4.23822e-09)
(5.12327e-09 3.06196e-12 -1.82947e-13)
(9.43205e-08 1.59837e-11 -2.16555e-12)
(1.5636e-06 4.39331e-11 -1.76224e-11)
(2.43275e-05 6.74725e-11 -1.0174e-10)
(0.000347471 1.13724e-11 -4.87417e-10)
(0.00439864 -1.93246e-10 -1.66933e-09)
(0.0464696 -2.97799e-09 -3.10771e-09)
(0.364972 -3.6484e-09 -7.1419e-09)
(5.12384e-09 2.98643e-12 2.38081e-13)
(9.43268e-08 1.46792e-11 1.53588e-12)
(1.56366e-06 3.57709e-11 5.6157e-12)
(2.43279e-05 2.69847e-11 2.28631e-11)
(0.000347473 -1.41056e-10 8.73567e-11)
(0.00439865 -6.13033e-10 1.46802e-10)
(0.0464696 -3.90316e-09 -1.22683e-09)
(0.364972 -4.41427e-09 -1.29078e-09)
(5.12104e-09 3.54678e-12 4.70503e-13)
(9.42922e-08 1.79758e-11 4.4775e-12)
(1.56333e-06 5.18331e-11 2.57156e-11)
(2.43252e-05 9.78084e-11 1.33404e-10)
(0.000347457 5.95305e-11 6.05682e-10)
(0.00439858 -6.47664e-10 1.9366e-09)
(0.0464695 -3.85652e-09 2.74639e-09)
(0.364972 -3.8406e-09 4.08452e-10)
(5.11527e-09 4.50469e-12 3.03722e-13)
(9.42222e-08 2.40295e-11 5.05923e-12)
(1.56267e-06 8.35235e-11 3.21811e-11)
(2.43201e-05 2.41925e-10 1.76288e-10)
(0.000347427 5.31229e-10 8.18181e-10)
(0.00439846 2.11762e-10 2.72584e-09)
(0.0464692 -4.78117e-09 4.94798e-09)
(0.364972 -4.77033e-09 4.40809e-09)
(5.10979e-09 5.37501e-12 -1.25282e-13)
(9.41555e-08 2.97894e-11 2.26427e-12)
(1.56205e-06 1.15253e-10 1.79438e-11)
(2.43154e-05 3.89055e-10 1.06779e-10)
(0.0003474 1.0076e-09 5.13161e-10)
(0.00439835 9.04409e-10 1.77961e-09)
(0.046469 -3.19397e-09 3.35965e-09)
(0.364972 -3.26999e-09 6.9336e-09)
)
;
    }
    procBoundary0to1throughstreamwiseIn
    {
        type            processorCyclic;
        value           nonuniform List<vector> 
64
(
(5.10903e-09 -9.66162e-13 2.94033e-13)
(9.41503e-08 -1.24287e-11 1.15959e-12)
(1.562e-06 -9.41436e-11 1.2566e-11)
(2.43151e-05 -4.35375e-10 8.41212e-11)
(0.000347398 -1.13863e-09 4.04806e-10)
(0.00439835 -8.55297e-10 1.37567e-09)
(0.046469 4.48751e-10 2.063e-09)
(0.364972 1.53789e-09 -2.96063e-11)
(5.11405e-09 -5.4504e-13 1.12499e-12)
(9.42085e-08 -7.74642e-12 4.28955e-12)
(1.56254e-06 -6.48296e-11 3.10407e-11)
(2.43192e-05 -3.01566e-10 1.83788e-10)
(0.000347422 -7.0294e-10 8.4038e-10)
(0.00439844 -4.55524e-10 2.72708e-09)
(0.0464692 8.54384e-10 4.65072e-09)
(0.364972 1.31496e-09 -1.44992e-09)
(5.11993e-09 1.74215e-13 1.06911e-12)
(9.42792e-08 -1.39857e-12 4.54429e-12)
(1.56321e-06 -2.76659e-11 2.93918e-11)
(2.43244e-05 -1.35745e-10 1.71597e-10)
(0.000347453 -2.00259e-10 7.82637e-10)
(0.00439857 5.06126e-10 2.41633e-09)
(0.0464694 -1.43759e-09 3.96564e-09)
(0.364972 -1.49302e-09 -3.34852e-09)
(5.1235e-09 7.18997e-13 5.26347e-13)
(9.43231e-08 2.70259e-12 2.23572e-12)
(1.56362e-06 -2.96136e-12 1.14781e-11)
(2.43275e-05 -2.27246e-11 6.61694e-11)
(0.000347471 1.23597e-10 2.93696e-10)
(0.00439864 6.45336e-10 8.14563e-10)
(0.0464696 -1.98857e-09 2.1793e-10)
(0.364972 -2.299e-09 2.17602e-10)
(5.12393e-09 7.93299e-13 -1.64362e-13)
(9.43287e-08 2.64152e-12 -1.14129e-12)
(1.56367e-06 -3.98816e-12 -1.1503e-11)
(2.43279e-05 -3.12885e-11 -7.57783e-11)
(0.000347473 7.39799e-11 -3.71025e-10)
(0.00439864 4.08776e-10 -1.2259e-09)
(0.0464696 -2.38332e-09 -1.84364e-09)
(0.364972 -2.40768e-09 3.05867e-11)
(5.12095e-09 3.57069e-13 -8.33238e-13)
(9.42929e-08 -1.48347e-12 -3.90042e-12)
(1.56333e-06 -3.06038e-11 -2.84203e-11)
(2.43252e-05 -1.55855e-10 -1.741e-10)
(0.000347457 -3.02071e-10 -8.05065e-10)
(0.00439858 8.24338e-11 -2.5342e-09)
(0.0464695 -2.03968e-09 -4.33444e-09)
(0.364972 -1.49431e-09 8.12299e-10)
(5.11509e-09 -3.27177e-13 -1.19877e-12)
(9.42223e-08 -7.53792e-12 -4.56258e-12)
(1.56267e-06 -6.70222e-11 -3.04548e-11)
(2.43201e-05 -3.18825e-10 -1.7994e-10)
(0.000347427 -7.96861e-10 -8.16419e-10)
(0.00439846 -8.64721e-10 -2.5661e-09)
(0.0464692 -8.07666e-10 -4.185e-09)
(0.364972 2.72789e-10 3.34754e-09)
(5.10952e-09 -8.50339e-13 -8.18097e-13)
(9.41557e-08 -1.22704e-11 -2.62483e-12)
(1.56205e-06 -9.55551e-11 -1.40986e-11)
(2.43154e-05 -4.46812e-10 -7.58575e-11)
(0.000347399 -1.18109e-09 -3.29012e-10)
(0.00439835 -1.07892e-09 -1.00745e-09)
(0.046469 8.57146e-10 -5.34219e-10)
(0.364972 2.23109e-09 4.20016e-10)
)
;
    }
}


// ************************************************************************* //
