/*--------------------------------*- C++ -*----------------------------------*\
| =========                 |                                                 |
| \\      /  F ield         | OpenFOAM: The Open Source CFD Toolbox           |
|  \\    /   O peration     | Version:  2112                                  |
|   \\  /    A nd           | Website:  www.openfoam.com                      |
|    \\/     M anipulation  |                                                 |
\*---------------------------------------------------------------------------*/
FoamFile
{
    version     2.0;
    format      ascii;
    arch        "LSB;label=32;scalar=64";
    class       surfaceScalarField;
    location    "3";
    object      phi_0;
}
// * * * * * * * * * * * * * * * * * * * * * * * * * * * * * * * * * * * * * //

dimensions      [0 3 -1 0 0 0 0];

oriented        oriented;

internalField   nonuniform List<scalar> 
640
(
2.27108e-09
8.92943e-12
-8.91439e-13
2.25977e-09
1.20464e-11
-8.30807e-13
2.26778e-09
-8.93929e-12
7.05684e-13
-1.21641e-11
6.91219e-13
4.94544e-08
5.46439e-11
-9.64222e-12
4.9403e-08
7.20907e-11
-9.03742e-12
4.94383e-08
-4.64527e-11
1.24545e-12
-6.55851e-11
9.7731e-13
1.01086e-06
2.39273e-10
-5.22994e-11
1.01063e-06
3.45683e-10
-4.66795e-11
1.01075e-06
-2.03022e-10
2.03294e-11
-3.21278e-10
1.71928e-11
2.03052e-05
6.64089e-10
-2.27287e-10
2.03044e-05
1.28631e-09
-1.66856e-10
2.03046e-05
-6.36701e-10
1.88636e-10
-1.30832e-09
1.40725e-10
0.000398412
1.10537e-09
-9.78172e-10
0.00039841
3.44102e-09
-6.5226e-10
0.00039841
-1.27554e-09
1.0352e-09
-3.7278e-09
7.36413e-10
0.00753708
2.15627e-09
-3.37922e-09
0.00753709
1.94418e-09
2.00683e-10
0.00753708
-2.40243e-09
3.37635e-09
-1.78835e-09
-2.41381e-10
0.133714
3.58394e-09
-8.84603e-09
0.133714
-8.3238e-09
-1.66931e-09
0.133714
-3.66887e-09
9.20868e-09
9.01095e-09
1.32105e-09
2.0767
-4.95897e-09
2.0767
1.04792e-08
2.0767
4.7475e-09
-1.02319e-08
2.28111e-09
7.65296e-12
-1.36256e-12
2.27067e-09
1.08591e-11
-1.24504e-12
2.27783e-09
-7.49398e-12
1.03564e-12
-1.06583e-11
8.96637e-13
4.95739e-08
4.26062e-11
-1.28766e-11
4.95251e-08
6.2523e-11
-1.1935e-11
4.95568e-08
-4.09996e-11
3.0792e-12
-6.0582e-11
2.1e-12
1.01198e-06
1.74221e-10
-6.67135e-11
1.01175e-06
3.04254e-10
-5.78328e-11
1.01187e-06
-1.75151e-10
3.72095e-11
-3.02772e-10
2.87441e-11
2.03137e-05
4.5019e-10
-2.84111e-10
2.03128e-05
1.27082e-09
-2.13194e-10
2.0313e-05
-5.09701e-10
3.01098e-10
-1.31616e-09
2.3679e-10
0.000398459
6.40014e-10
-1.18833e-09
0.000398457
3.28286e-09
-5.8539e-10
0.000398457
-8.54031e-10
1.39816e-09
-3.50361e-09
8.46707e-10
0.00753725
1.96027e-09
-3.93585e-09
0.00753726
1.31875e-09
-1.37165e-09
0.00753726
-2.05217e-09
3.75683e-09
-1.43292e-09
1.2783e-09
0.133714
5.31282e-09
-3.55397e-09
0.133714
-6.72907e-09
8.07385e-09
0.133714
-4.91797e-09
2.95038e-09
6.95701e-09
-8.28473e-09
2.0767
4.27328e-09
2.0767
1.48938e-09
2.0767
-2.86424e-09
-2.23976e-09
2.29337e-09
5.50456e-12
-1.04319e-12
2.28414e-09
8.86799e-12
-8.81355e-13
2.28998e-09
-5.61501e-12
8.01106e-13
-8.9415e-12
6.31203e-13
4.97194e-08
2.78771e-11
-8.99096e-12
4.96749e-08
4.94595e-11
-7.98952e-12
4.97012e-08
-3.19824e-11
3.13765e-12
-5.33865e-11
2.08391e-12
1.01334e-06
1.09759e-10
-4.44572e-11
1.01311e-06
2.57616e-10
-3.68924e-11
1.01321e-06
-1.3142e-10
3.29251e-11
-2.79471e-10
2.52327e-11
2.03239e-05
2.79371e-10
-1.78329e-10
2.03229e-05
1.18835e-09
-1.27588e-10
2.03231e-05
-3.3999e-10
2.41182e-10
-1.25614e-09
1.90174e-10
0.000398516
4.71392e-10
-7.1047e-10
0.000398513
3.75064e-09
-4.06552e-10
0.000398514
-5.60155e-10
9.86903e-10
-3.87816e-09
6.89198e-10
0.00753746
2.00882e-09
-1.69154e-09
0.00753746
2.54894e-09
-4.79994e-10
0.00753747
-2.03432e-09
1.55694e-09
-2.69181e-09
2.94176e-10
0.133714
4.75816e-09
4.49791e-09
0.133714
-7.4617e-09
-1.30434e-09
0.133715
-4.64734e-09
-5.15904e-09
7.52649e-09
8.07054e-10
2.0767
3.3164e-08
2.0767
-1.12695e-08
2.0767
-3.30133e-08
1.1953e-08
2.3012e-09
3.74976e-12
8.49863e-15
2.29284e-09
7.40119e-12
7.9526e-14
2.29769e-09
-4.29312e-12
2.33642e-13
-7.90835e-12
1.6293e-13
4.98118e-08
1.69862e-11
-2.02888e-13
4.97704e-08
4.06787e-11
1.62236e-13
4.97924e-08
-2.43705e-11
1.13799e-12
-4.78271e-11
6.72032e-13
1.01418e-06
6.49221e-11
1.35409e-12
1.01395e-06
2.29098e-10
3.34768e-12
1.01405e-06
-9.32736e-11
7.86804e-12
-2.56142e-10
5.1189e-12
2.033e-05
1.95423e-10
2.77278e-11
2.03289e-05
1.17811e-09
3.24169e-11
2.03292e-05
-2.26671e-10
4.14559e-11
-1.20949e-09
3.10544e-11
0.000398548
6.98215e-10
1.76412e-10
0.000398545
3.69327e-09
1.28448e-10
0.000398546
-6.31069e-10
2.20415e-11
-3.635e-09
4.41615e-11
0.00753758
3.94121e-09
1.3082e-09
0.00753758
1.4212e-09
3.4096e-10
0.00753758
-3.91532e-09
-1.39479e-09
-1.37085e-09
-5.25617e-10
0.133715
8.91884e-09
9.54247e-09
0.133715
-9.07264e-09
-3.26286e-09
0.133715
-9.12906e-09
-9.88074e-09
8.91843e-09
2.88342e-09
2.0767
2.35493e-08
2.0767
-9.17457e-09
2.0767
-2.33227e-08
9.41766e-09
2.30253e-09
3.63072e-12
1.08078e-12
2.29417e-09
7.4051e-12
1.02473e-12
2.29893e-09
-4.09466e-12
-4.46419e-13
-7.83926e-12
-3.94027e-13
4.98269e-08
1.67166e-11
8.75423e-12
4.97854e-08
4.0753e-11
8.33775e-12
4.98074e-08
-2.33793e-11
-1.56476e-12
-4.74213e-11
-1.2525e-12
1.01431e-06
6.94668e-11
4.65615e-11
1.01408e-06
2.33541e-10
4.20652e-11
1.01418e-06
-9.0986e-11
-2.23643e-11
-2.54888e-10
-1.8929e-11
2.03307e-05
2.69906e-10
2.19344e-10
2.03296e-05
1.22357e-09
1.72013e-10
2.033e-05
-2.52174e-10
-1.86536e-10
-1.20973e-09
-1.46602e-10
0.00039855
1.20955e-09
9.78767e-10
0.000398547
3.71739e-09
5.82191e-10
0.000398549
-9.71253e-10
-9.88709e-10
-3.49888e-09
-6.26388e-10
0.00753758
5.20452e-09
3.74736e-09
0.00753758
1.06539e-09
4.89942e-11
0.00753759
-5.10124e-09
-3.74739e-09
-9.01165e-10
-1.30832e-10
0.133715
9.67727e-09
7.34441e-09
0.133715
-9.3274e-09
-3.9513e-09
0.133715
-1.00185e-08
-7.4716e-09
9.0714e-09
4.22541e-09
2.0767
1.52239e-08
2.0767
-2.15915e-08
2.0767
-1.49647e-08
2.12048e-08
2.29658e-09
5.28208e-12
1.40844e-12
2.28734e-09
8.97859e-12
1.27488e-12
2.29297e-09
-5.06496e-12
-1.02016e-12
-8.79022e-12
-8.99586e-13
4.97563e-08
2.74293e-11
1.30087e-11
4.97114e-08
5.00872e-11
1.20969e-11
4.97376e-08
-2.95873e-11
-3.17126e-12
-5.27772e-11
-2.31752e-12
1.01365e-06
1.21882e-10
6.68622e-11
1.01342e-06
2.68813e-10
5.84878e-11
1.01353e-06
-1.27382e-10
-3.84239e-11
-2.77649e-10
-2.99681e-11
2.03257e-05
4.66908e-10
2.80043e-10
2.03247e-05
1.25272e-09
2.18366e-10
2.03251e-05
-4.10138e-10
-3.07716e-10
-1.21538e-09
-2.40875e-10
0.000398522
1.61765e-09
1.19544e-09
0.00039852
3.50202e-09
6.41443e-10
0.000398521
-1.32137e-09
-1.47063e-09
-3.25269e-09
-8.71874e-10
0.00753748
6.02083e-09
3.51553e-09
0.00753748
-5.37545e-10
1.16955e-09
0.00753749
-5.88859e-09
-3.5264e-09
5.99021e-10
-8.88632e-10
0.133715
1.16186e-08
4.95083e-09
0.133715
-1.27243e-08
-2.27667e-09
0.133715
-1.17789e-08
-5.21791e-09
1.24021e-08
3.36685e-09
2.0767
-1.31515e-08
2.0767
8.49529e-09
2.0767
1.39097e-08
-9.86363e-09
2.28427e-09
7.53456e-12
8.24089e-13
2.27378e-09
1.10623e-11
6.97776e-13
2.28075e-09
-6.93912e-12
-1.0447e-12
-1.0508e-11
-8.94009e-13
4.96103e-08
4.29237e-11
9.65821e-12
4.95612e-08
6.36229e-11
8.69425e-12
4.9593e-08
-3.91414e-11
-2.82315e-12
-6.03779e-11
-1.70358e-12
1.01229e-06
1.91642e-10
4.85888e-11
1.01206e-06
3.15444e-10
4.13064e-11
1.01219e-06
-1.76257e-10
-3.10002e-11
-3.03202e-10
-2.24527e-11
2.03157e-05
6.35419e-10
1.87163e-10
2.03148e-05
1.31588e-09
1.299e-10
2.03151e-05
-5.81901e-10
-2.5105e-10
-1.26968e-09
-1.88246e-10
0.000398468
1.80439e-09
6.69641e-10
0.000398466
3.44432e-09
3.50051e-10
0.000398467
-1.70412e-09
-1.00236e-09
-3.30043e-09
-6.67496e-10
0.00753729
5.36612e-09
2.11951e-09
0.00753729
2.78795e-10
7.77282e-10
0.00753729
-5.42754e-09
-1.88711e-09
-1.79704e-10
-5.3315e-10
0.133714
8.63894e-09
-6.00442e-09
0.133714
-1.03558e-08
-4.30414e-09
0.133714
-8.87078e-09
6.51232e-09
1.04467e-08
4.79784e-09
2.0767
-2.31736e-08
2.0767
3.03967e-10
2.0767
2.28225e-08
-7.03797e-10
2.27233e-09
8.84553e-12
2.26096e-09
1.22095e-11
2.26894e-09
-8.75999e-12
-1.21256e-11
4.94694e-08
5.37329e-11
4.94173e-08
7.33479e-11
4.94531e-08
-4.63215e-11
-6.51086e-11
1.01099e-06
2.36132e-10
1.01076e-06
3.53009e-10
1.01089e-06
-2.06712e-10
-3.1514e-10
2.03061e-05
7.16287e-10
2.03053e-05
1.35928e-09
2.03056e-05
-7.06787e-10
-1.30362e-09
0.000398416
1.44774e-09
0.000398415
3.0772e-09
0.000398415
-1.65319e-09
-3.13575e-09
0.0075371
4.11215e-09
0.00753711
-7.2385e-10
0.00753711
-3.93278e-09
4.34155e-10
0.133714
8.06748e-09
0.133714
-1.0636e-08
0.133714
-7.52388e-09
1.02768e-08
2.0767
2.0767
2.0767
)
;

boundaryField
{
    movingWall
    {
        type            calculated;
        value           uniform 0;
    }
    CPLReceiveMD
    {
        type            calculated;
        value           uniform 0;
    }
    streamwiseIn
    {
        type            cyclic;
        value           nonuniform List<scalar> 0();
    }
    streamwiseOut
    {
        type            cyclic;
        value           nonuniform List<scalar> 0();
    }
    front
    {
        type            cyclic;
        value           nonuniform List<scalar> 
32
(
-2.46764e-14
2.79296e-13
7.88197e-14
-2.46529e-11
-1.37008e-10
-1.63214e-09
-7.37899e-09
-3.44763e-08
-1.19888e-13
-3.36444e-13
-4.00778e-12
-4.49577e-11
-5.95234e-11
-7.77885e-10
8.30459e-09
2.09352e-08
-2.64855e-13
-1.04005e-12
-6.53149e-12
-2.69573e-11
1.77117e-11
1.85735e-09
8.50978e-09
3.21988e-08
-1.94623e-13
-5.58869e-13
-4.88629e-12
-2.35165e-11
-1.42265e-10
8.75563e-10
-8.72847e-09
-1.92242e-08
)
;
    }
    back
    {
        type            cyclic;
        value           nonuniform List<scalar> 
32
(
2.46764e-14
-2.79296e-13
-7.88197e-14
2.46529e-11
1.37008e-10
1.63214e-09
7.37899e-09
3.44763e-08
1.19888e-13
3.36444e-13
4.00778e-12
4.49577e-11
5.95234e-11
7.77885e-10
-8.30459e-09
-2.09352e-08
2.64855e-13
1.04005e-12
6.53149e-12
2.69573e-11
-1.77117e-11
-1.85735e-09
-8.50978e-09
-3.21988e-08
1.94623e-13
5.58869e-13
4.88629e-12
2.35165e-11
1.42265e-10
-8.75563e-10
8.72847e-09
1.92242e-08
)
;
    }
    procBoundary1to0
    {
        type            processor;
        value           nonuniform List<scalar> 
64
(
-2.27912e-09
-4.94901e-08
-1.01099e-06
-2.03055e-05
-0.000398411
-0.00753708
-0.133714
-2.0767
-2.28828e-09
-4.96056e-08
-1.0121e-06
-2.03139e-05
-0.000398459
-0.00753725
-0.133714
-2.0767
-2.29919e-09
-4.97457e-08
-1.01344e-06
-2.03242e-05
-0.000398517
-0.00753747
-0.133714
-2.0767
-2.30602e-09
-4.98338e-08
-1.01428e-06
-2.03303e-05
-0.000398549
-0.00753758
-0.133715
-2.0767
-2.30726e-09
-4.98489e-08
-1.01441e-06
-2.03311e-05
-0.000398552
-0.00753758
-0.133715
-2.0767
-2.30222e-09
-4.97827e-08
-1.01376e-06
-2.03261e-05
-0.000398524
-0.00753748
-0.133715
-2.0767
-2.29123e-09
-4.96423e-08
-1.01242e-06
-2.0316e-05
-0.000398468
-0.00753729
-0.133714
-2.0767
-2.28028e-09
-4.9505e-08
-1.01112e-06
-2.03064e-05
-0.000398416
-0.0075371
-0.133714
-2.0767
)
;
    }
    procBoundary1to0throughstreamwiseOut
    {
        type            processorCyclic;
        value           nonuniform List<scalar> 
64
(
2.2792e-09
4.94901e-08
1.01099e-06
2.03055e-05
0.000398411
0.00753708
0.133714
2.0767
2.28832e-09
4.96055e-08
1.0121e-06
2.03139e-05
0.000398459
0.00753725
0.133714
2.0767
2.29919e-09
4.97457e-08
1.01344e-06
2.03242e-05
0.000398517
0.00753747
0.133714
2.0767
2.30604e-09
4.98338e-08
1.01428e-06
2.03303e-05
0.000398549
0.00753758
0.133715
2.0767
2.30729e-09
4.98489e-08
1.01441e-06
2.03311e-05
0.000398552
0.00753758
0.133715
2.0767
2.30222e-09
4.97827e-08
1.01376e-06
2.03261e-05
0.000398524
0.00753748
0.133715
2.0767
2.29121e-09
4.96423e-08
1.01242e-06
2.0316e-05
0.000398468
0.00753729
0.133714
2.0767
2.28027e-09
4.95049e-08
1.01112e-06
2.03064e-05
0.000398416
0.0075371
0.133714
2.0767
)
;
    }
}


// ************************************************************************* //
