/*--------------------------------*- C++ -*----------------------------------*\
| =========                 |                                                 |
| \\      /  F ield         | OpenFOAM: The Open Source CFD Toolbox           |
|  \\    /   O peration     | Version:  2112                                  |
|   \\  /    A nd           | Website:  www.openfoam.com                      |
|    \\/     M anipulation  |                                                 |
\*---------------------------------------------------------------------------*/
FoamFile
{
    version     2.0;
    format      ascii;
    arch        "LSB;label=32;scalar=64";
    class       surfaceScalarField;
    location    "5";
    object      phi;
}
// * * * * * * * * * * * * * * * * * * * * * * * * * * * * * * * * * * * * * //

dimensions      [0 3 -1 0 0 0 0];

oriented        oriented;

internalField   nonuniform List<scalar> 
640
(
6.07736e-08
5.32785e-11
-7.6268e-12
6.07268e-08
5.09659e-11
-7.50595e-12
6.07735e-08
-5.55902e-11
3.03446e-12
-5.21833e-11
5.37691e-12
1.12036e-06
2.84013e-10
-3.72721e-11
1.12018e-06
2.7053e-10
-5.05964e-11
1.12038e-06
-2.94612e-10
2.12999e-11
-2.7341e-10
3.62437e-11
1.85892e-05
1.21966e-09
-1.83392e-10
1.85887e-05
1.08822e-09
-2.66502e-10
1.85894e-05
-1.24574e-09
1.9126e-10
-1.12147e-09
2.87534e-10
0.00028938
3.71606e-09
-9.73709e-10
0.00028938
3.06097e-09
-1.44334e-09
0.000289381
-3.67528e-09
1.07895e-09
-3.14596e-09
1.66754e-09
0.00413449
5.71525e-09
-4.49901e-09
0.00413449
4.8036e-09
-6.84787e-09
0.00413449
-5.04426e-09
4.40121e-09
-4.38226e-09
7.44447e-09
0.052346
-2.83204e-09
-1.46037e-08
0.052346
2.69134e-09
-2.41606e-08
0.052346
4.3028e-09
1.21873e-08
-3.28262e-10
2.46642e-08
0.55304
-1.59009e-08
-1.11986e-08
0.553041
-4.10738e-09
-3.34776e-08
0.55304
1.21281e-08
9.52235e-09
2.38751e-09
3.70875e-08
4.34363
1.05915e-09
4.34363
-7.00656e-09
4.34363
-1.57035e-09
6.80698e-09
6.08314e-08
4.3856e-11
-6.62802e-12
6.07939e-08
3.74354e-11
-7.44392e-12
6.08377e-08
-5.02223e-11
9.49304e-12
-4.21235e-11
1.08895e-11
1.12106e-06
2.32935e-10
-5.48955e-11
1.12091e-06
1.99154e-10
-6.48688e-11
1.12109e-06
-2.56123e-10
4.82088e-11
-2.03776e-10
5.60279e-11
1.85957e-05
1.0091e-09
-3.26239e-10
1.85952e-05
7.93521e-10
-3.91449e-10
1.85959e-05
-1.04415e-09
3.37228e-10
-7.58124e-10
3.81719e-10
0.000289429
3.0571e-09
-1.83489e-09
0.000289429
2.13255e-09
-2.17075e-09
0.00028943
-3.04244e-09
1.89706e-09
-1.86033e-09
2.15163e-09
0.00413477
5.00554e-09
-8.65813e-09
0.00413478
3.34187e-09
-1.00354e-08
0.00413477
-4.48657e-09
8.40773e-09
-2.38826e-09
9.59894e-09
0.0523471
-1.58714e-09
-2.81743e-08
0.0523471
9.53287e-10
-3.1569e-08
0.0523471
3.10202e-09
2.65399e-08
6.06813e-10
2.96883e-08
0.553043
-1.52189e-08
-4.89947e-08
0.553043
-7.22363e-09
-4.96339e-08
0.553043
1.28408e-08
5.44926e-08
4.1175e-09
5.46289e-08
4.34363
-1.80776e-08
4.34363
3.67369e-08
4.34363
1.62966e-08
-4.11508e-08
6.09058e-08
3.20945e-11
-4.21909e-12
6.08793e-08
2.29067e-11
-3.93204e-12
6.09147e-08
-3.56191e-11
9.785e-12
-2.4841e-11
9.45667e-12
1.12192e-06
1.53472e-10
-4.13497e-11
1.12182e-06
1.00871e-10
-4.07322e-11
1.12196e-06
-1.72521e-10
4.39343e-11
-1.08391e-10
4.23343e-11
1.86036e-05
6.52297e-10
-2.95589e-10
1.86033e-05
3.34852e-10
-2.94026e-10
1.86038e-05
-6.22235e-10
2.62077e-10
-3.06938e-10
2.44502e-10
0.00028949
1.79735e-09
-1.65602e-09
0.000289489
5.72503e-10
-1.60819e-09
0.00028949
-1.59263e-09
1.54331e-09
-3.74362e-10
1.41918e-09
0.00413513
1.88554e-09
-7.74635e-09
0.00413513
4.99062e-11
-7.18687e-09
0.00413513
-1.51264e-09
7.37634e-09
4.15951e-10
6.43399e-09
0.0523486
-3.94892e-09
-2.60357e-08
0.0523485
2.06685e-09
-2.18265e-08
0.0523485
3.88748e-09
2.53272e-08
-1.80619e-09
1.96596e-08
0.553046
-1.07506e-08
-4.44923e-08
0.553046
6.86738e-09
-2.02331e-08
0.553046
9.96488e-09
5.24032e-08
-7.53108e-09
2.44636e-08
4.34363
-6.87968e-08
4.34363
6.25055e-09
4.34363
6.56054e-08
-1.07035e-08
6.09546e-08
2.18328e-11
7.19918e-13
6.09358e-08
1.25351e-11
2.28123e-12
6.09624e-08
-2.0972e-11
4.20005e-12
-1.15573e-11
2.58686e-12
1.12247e-06
8.49224e-11
-3.27196e-12
1.1224e-06
3.59334e-11
6.96059e-12
1.1225e-06
-1.01966e-10
1.78e-11
-4.26875e-11
7.52389e-12
1.86086e-05
2.90529e-10
-8.02139e-11
1.86084e-05
-1.76539e-11
-7.49091e-12
1.86088e-05
-3.0385e-10
5.94121e-11
-4.25336e-11
-5.00669e-12
0.000289527
5.2444e-10
-5.16823e-10
0.000289526
-5.52389e-10
-6.33077e-11
0.000289528
-4.75048e-10
3.308e-10
4.62409e-10
-8.52485e-11
0.00413535
-5.92695e-10
-2.55056e-09
0.00413534
-1.33167e-09
-3.68904e-12
0.00413534
8.1621e-10
1.81061e-09
1.30143e-09
-6.1319e-10
0.0523494
-7.52276e-09
-9.23095e-09
0.0523494
2.73482e-09
2.33462e-09
0.0523494
6.40245e-09
8.5738e-09
-3.39816e-09
-2.57595e-09
0.553047
-1.42256e-08
-2.49585e-08
0.553047
1.02974e-08
1.26035e-08
0.553047
1.58988e-08
2.82232e-08
-8.47104e-09
-9.01031e-09
4.34363
-5.08502e-08
4.34363
-4.52344e-09
4.34363
4.97184e-08
1.51044e-09
6.09624e-08
2.02305e-11
5.15905e-12
6.09438e-08
1.37377e-11
7.19356e-12
6.09679e-08
-1.68037e-11
-3.0638e-12
-1.03327e-11
-5.38299e-12
1.12255e-06
7.09757e-11
3.74264e-11
1.12247e-06
4.07875e-11
5.23928e-11
1.12257e-06
-7.84699e-11
-1.75103e-11
-3.96161e-11
-3.07758e-11
1.86093e-05
1.69772e-10
1.92082e-10
1.8609e-05
-2.65918e-12
2.91471e-10
1.86094e-05
-2.26961e-10
-1.63327e-10
-5.43056e-11
-2.458e-10
0.000289532
-4.51596e-12
9.25149e-10
0.00028953
-4.37615e-10
1.49622e-09
0.000289532
-1.40006e-10
-1.07215e-09
3.48002e-10
-1.56374e-09
0.00413537
-2.15053e-09
4.12398e-09
0.00413536
-7.84491e-10
6.97707e-09
0.00413537
1.93326e-09
-4.85543e-09
4.1764e-10
-7.25249e-09
0.0523495
-1.04848e-08
1.30251e-08
0.0523494
3.60154e-09
2.46681e-08
0.0523495
8.74278e-09
-1.33489e-08
-4.86118e-09
-2.28253e-08
0.553048
-1.70908e-08
9.35076e-09
0.553047
1.17616e-08
3.43434e-08
0.553048
2.01611e-08
-1.25218e-08
-8.70767e-09
-3.34401e-08
4.34363
4.29766e-09
4.34363
-1.06396e-08
4.34363
-1.36334e-09
9.68473e-09
6.0925e-08
2.73444e-11
7.42395e-12
6.08995e-08
2.38613e-11
8.90187e-12
6.09281e-08
-2.3106e-11
-8.53501e-12
-2.1309e-11
-1.00395e-11
1.12212e-06
1.18457e-10
5.64327e-11
1.12201e-06
1.164e-10
6.68476e-11
1.12213e-06
-1.12597e-10
-4.52337e-11
-9.89039e-11
-5.39264e-11
1.86053e-05
3.93837e-10
3.36272e-10
1.86049e-05
3.82865e-10
4.00536e-10
1.86053e-05
-3.88177e-10
-3.19749e-10
-3.34658e-10
-3.73244e-10
0.000289501
6.19719e-10
1.8269e-09
0.0002895
7.48178e-10
2.15751e-09
0.000289501
-7.06423e-10
-1.88106e-09
-7.46921e-10
-2.17846e-09
0.00413518
-1.66001e-09
8.53229e-09
0.00413518
5.59063e-10
9.94361e-09
0.00413518
1.18763e-09
-8.43674e-09
-1.39337e-09
-9.82478e-09
0.0523487
-1.07463e-08
2.81169e-08
0.0523487
3.43973e-09
3.17595e-08
0.0523487
8.86092e-09
-2.6182e-08
-4.54133e-09
-3.0495e-08
0.553046
-1.48829e-08
4.86858e-08
0.553046
7.75648e-09
5.05088e-08
0.553046
1.76924e-08
-5.35173e-08
-6.20022e-09
-5.52979e-08
4.34363
1.85818e-08
4.34363
-1.84342e-08
4.34363
-1.16341e-08
1.78316e-08
6.085e-08
4.00242e-11
5.17749e-12
6.08133e-08
4.08221e-11
4.838e-12
6.08515e-08
-3.74484e-11
-9.35803e-12
-3.77753e-11
-9.35897e-12
1.12126e-06
2.01164e-10
4.18936e-11
1.1211e-06
2.20248e-10
3.99258e-11
1.12126e-06
-1.90247e-10
-4.76162e-11
-1.88988e-10
-4.80701e-11
1.85974e-05
7.78142e-10
2.89868e-10
1.85968e-05
8.61645e-10
2.70162e-10
1.85974e-05
-7.75678e-10
-2.85877e-10
-7.63717e-10
-2.88476e-10
0.00028944
1.92191e-09
1.71155e-09
0.000289439
2.3088e-09
1.54552e-09
0.00028944
-2.17222e-09
-1.53962e-09
-2.21872e-09
-1.53184e-09
0.00413482
1.17995e-09
8.19048e-09
0.00413483
3.75669e-09
6.91554e-09
0.00413482
-2.21619e-09
-6.93797e-09
-4.30551e-09
-6.52878e-09
0.0523473
-9.32606e-09
2.77324e-08
0.0523473
3.0508e-09
1.99726e-08
0.0523473
8.89701e-09
-2.43653e-08
-4.1047e-09
-2.02426e-08
0.553043
-2.19709e-08
4.75326e-08
0.553043
-8.76287e-11
1.71764e-08
0.553043
2.32335e-08
-5.0818e-08
2.76678e-10
-2.64461e-08
4.34363
6.98355e-08
4.34363
-2.14727e-08
4.34363
-7.02058e-08
2.96395e-08
6.07787e-08
5.25386e-11
6.0734e-08
5.2868e-11
6.07796e-08
-4.91491e-11
-5.00508e-11
1.12044e-06
2.75853e-10
1.12026e-06
2.80739e-10
1.12045e-06
-2.59991e-10
-2.67359e-10
1.85899e-05
1.14411e-09
1.85893e-05
1.12048e-09
1.859e-05
-1.09901e-09
-1.13241e-09
0.000289384
3.27133e-09
0.000289384
3.13219e-09
0.000289385
-3.19489e-09
-3.33409e-09
0.0041345
4.20662e-09
0.00413451
4.95658e-09
0.00413451
-4.00747e-09
-5.27692e-09
0.052346
-4.36332e-09
0.0523461
1.63883e-09
0.052346
5.64253e-09
-7.70841e-10
0.55304
-1.6424e-08
0.553041
-9.10977e-09
0.553041
1.51132e-08
7.40555e-09
4.34363
4.34363
4.34363
)
;

boundaryField
{
    movingWall
    {
        type            calculated;
        value           uniform 0;
    }
    CPLReceiveMD
    {
        type            calculated;
        value           uniform 0;
    }
    streamwiseIn
    {
        type            cyclic;
        value           nonuniform List<scalar> 0();
    }
    streamwiseOut
    {
        type            cyclic;
        value           nonuniform List<scalar> 0();
    }
    front
    {
        type            cyclic;
        value           nonuniform List<scalar> 
32
(
-9.42896e-14
1.30979e-12
6.71545e-11
5.16266e-10
2.59738e-09
9.15628e-09
2.3981e-08
4.30735e-08
-3.3299e-12
-9.27156e-12
-2.83715e-12
7.48763e-11
1.41304e-10
-1.71758e-09
-1.12205e-08
2.66514e-08
-5.81708e-12
-2.1419e-11
-8.06417e-11
-3.59481e-10
-1.80133e-09
-8.75603e-09
-2.79137e-08
-4.86324e-08
-3.84784e-12
-9.35037e-12
-1.33663e-12
1.12718e-10
6.97817e-10
2.14611e-09
7.76038e-09
-1.63106e-08
)
;
    }
    back
    {
        type            cyclic;
        value           nonuniform List<scalar> 
32
(
9.42896e-14
-1.30979e-12
-6.71545e-11
-5.16266e-10
-2.59738e-09
-9.15628e-09
-2.3981e-08
-4.30735e-08
3.3299e-12
9.27156e-12
2.83715e-12
-7.48763e-11
-1.41304e-10
1.71758e-09
1.12205e-08
-2.66514e-08
5.81708e-12
2.1419e-11
8.06417e-11
3.59481e-10
1.80133e-09
8.75603e-09
2.79137e-08
4.86324e-08
3.84784e-12
9.35037e-12
1.33663e-12
-1.12718e-10
-6.97817e-10
-2.14611e-09
-7.76038e-09
1.63106e-08
)
;
    }
    procBoundary1to0
    {
        type            processor;
        value           nonuniform List<scalar> 
64
(
-6.08195e-08
-1.12055e-06
-1.85899e-05
-0.000289381
-0.00413448
-0.0523459
-0.55304
-4.34363
-6.08763e-08
-1.12123e-06
-1.85963e-05
-0.000289431
-0.00413477
-0.0523471
-0.553043
-4.34363
-6.09403e-08
-1.12206e-06
-1.86042e-05
-0.000289491
-0.00413513
-0.0523485
-0.553046
-4.34363
-6.09813e-08
-1.12257e-06
-1.8609e-05
-0.000289529
-0.00413535
-0.0523494
-0.553048
-4.34363
-6.0987e-08
-1.12264e-06
-1.86096e-05
-0.000289533
-0.00413537
-0.0523495
-0.553048
-4.34363
-6.09546e-08
-1.12223e-06
-1.86057e-05
-0.000289502
-0.00413518
-0.0523487
-0.553046
-4.34363
-6.08878e-08
-1.1214e-06
-1.85979e-05
-0.000289441
-0.00413482
-0.0523472
-0.553043
-4.34363
-6.08259e-08
-1.12062e-06
-1.85906e-05
-0.000289385
-0.0041345
-0.052346
-0.55304
-4.34363
)
;
    }
    procBoundary1to0throughstreamwiseOut
    {
        type            processorCyclic;
        value           nonuniform List<scalar> 
64
(
6.08163e-08
1.12055e-06
1.85899e-05
0.000289381
0.00413448
0.0523459
0.55304
4.34363
6.08743e-08
1.12123e-06
1.85963e-05
0.000289431
0.00413477
0.0523471
0.553043
4.34363
6.0941e-08
1.12206e-06
1.86042e-05
0.000289491
0.00413513
0.0523485
0.553046
4.34363
6.09808e-08
1.12257e-06
1.8609e-05
0.000289529
0.00413535
0.0523494
0.553048
4.34363
6.09862e-08
1.12264e-06
1.86096e-05
0.000289533
0.00413537
0.0523495
0.553048
4.34363
6.09541e-08
1.12223e-06
1.86057e-05
0.000289502
0.00413518
0.0523487
0.553046
4.34363
6.08886e-08
1.12141e-06
1.85979e-05
0.000289441
0.00413482
0.0523472
0.553043
4.34363
6.08242e-08
1.12062e-06
1.85906e-05
0.000289385
0.0041345
0.052346
0.55304
4.34363
)
;
    }
}


// ************************************************************************* //
