/*--------------------------------*- C++ -*----------------------------------*\
| =========                 |                                                 |
| \\      /  F ield         | OpenFOAM: The Open Source CFD Toolbox           |
|  \\    /   O peration     | Version:  2112                                  |
|   \\  /    A nd           | Website:  www.openfoam.com                      |
|    \\/     M anipulation  |                                                 |
\*---------------------------------------------------------------------------*/
FoamFile
{
    version     2.0;
    format      ascii;
    arch        "LSB;label=32;scalar=64";
    class       surfaceScalarField;
    location    "5";
    object      phi_0;
}
// * * * * * * * * * * * * * * * * * * * * * * * * * * * * * * * * * * * * * //

dimensions      [0 3 -1 0 0 0 0];

oriented        oriented;

internalField   nonuniform List<scalar> 
640
(
2.27048e-08
3.04344e-11
-3.37069e-12
2.26749e-08
3.32915e-11
-5.57258e-12
2.27049e-08
-3.35557e-11
7.3865e-13
-3.34927e-11
1.66457e-12
4.46249e-07
1.71379e-10
-2.07394e-11
4.46122e-07
1.80341e-10
-2.68897e-11
4.46247e-07
-1.86161e-10
1.42165e-11
-1.85572e-10
2.15242e-11
8.00928e-06
7.7077e-10
-1.02578e-10
8.00884e-06
7.56139e-10
-1.43617e-10
8.0093e-06
-8.2355e-10
1.25112e-10
-8.15389e-10
1.74058e-10
0.000136772
2.5323e-09
-6.08545e-10
0.000136771
2.38976e-09
-8.34894e-10
0.000136772
-2.52152e-09
6.92908e-10
-2.49385e-09
9.98693e-10
0.00218104
4.37924e-09
-3.04954e-09
0.00218104
4.45332e-09
-4.15385e-09
0.00218104
-3.76025e-09
2.90129e-09
-4.068e-09
4.48712e-09
0.0314921
-3.44507e-10
-1.06957e-08
0.0314921
2.48454e-09
-1.53022e-08
0.0314921
1.82015e-09
8.88012e-09
-5.24586e-10
1.55182e-08
0.389702
-1.00933e-08
-1.09093e-08
0.389702
-4.26163e-09
-1.87399e-08
0.389702
7.313e-09
9.78639e-09
2.78773e-09
2.1539e-08
3.69385
-1.8158e-09
3.69385
-9.91054e-09
3.69385
1.58938e-09
9.46776e-09
2.27362e-08
2.51003e-11
-3.97213e-12
2.27102e-08
2.57201e-11
-5.29613e-12
2.27363e-08
-2.95827e-11
4.26571e-12
-2.79249e-11
4.8577e-12
4.46612e-07
1.40442e-10
-2.79937e-11
4.46503e-07
1.40007e-10
-3.22974e-11
4.46618e-07
-1.60991e-10
3.12129e-11
-1.43358e-10
3.52133e-11
8.01275e-06
6.32086e-10
-1.66621e-10
8.01236e-06
5.79805e-10
-2.00864e-10
8.01279e-06
-6.89284e-10
2.23651e-10
-5.92702e-10
2.42997e-10
0.000136799
2.0478e-09
-1.11025e-09
0.000136799
1.82419e-09
-1.2809e-09
0.000136799
-2.06851e-09
1.16514e-09
-1.67646e-09
1.27697e-09
0.00218121
3.71008e-09
-5.62396e-09
0.00218121
3.7036e-09
-6.29818e-09
0.00218121
-3.26635e-09
5.23232e-09
-2.91153e-09
5.76603e-09
0.0314928
4.41045e-10
-1.87246e-08
0.0314928
1.41613e-09
-2.00134e-08
0.0314927
9.27133e-10
1.7504e-08
-4.20114e-10
1.85063e-08
0.389703
-9.05975e-09
-3.36873e-08
0.389703
-7.09151e-09
-3.2951e-08
0.389703
7.37518e-09
3.79517e-08
4.72001e-09
3.67829e-08
3.69385
-5.3456e-09
3.69385
2.76868e-08
3.69385
4.27262e-09
-3.13391e-08
2.27741e-08
1.76984e-11
-1.66617e-12
2.27546e-08
1.61208e-11
-1.93746e-12
2.27749e-08
-2.10687e-11
5.05228e-12
-1.89161e-11
5.00345e-12
4.47059e-07
9.28295e-11
-1.92429e-11
4.46977e-07
8.42839e-11
-1.85213e-11
4.47069e-07
-1.10334e-10
2.89811e-11
-8.54221e-11
2.78866e-11
8.01697e-06
4.21378e-10
-1.39897e-10
8.01668e-06
3.07917e-10
-1.37391e-10
8.01702e-06
-4.13434e-10
1.82129e-10
-3.11693e-10
1.71502e-10
0.000136832
1.25031e-09
-9.87714e-10
0.000136832
8.49308e-10
-9.56617e-10
0.000136833
-1.10219e-09
9.13184e-10
-7.48597e-10
8.37351e-10
0.00218141
1.57653e-09
-4.94762e-09
0.00218141
1.41222e-09
-4.63778e-09
0.00218141
-1.2124e-09
4.34868e-09
-1.00742e-09
3.79266e-09
0.0314936
-1.41291e-09
-1.65917e-08
0.0314936
1.65393e-09
-1.43039e-08
0.0314936
1.55693e-09
1.61182e-08
-1.68905e-09
1.27098e-08
0.389705
-5.63578e-09
-2.63376e-08
0.389705
3.14431e-09
-1.20821e-08
0.389705
4.84818e-09
3.25073e-08
-3.7477e-09
1.55085e-08
3.69385
-3.76262e-08
3.69385
1.59365e-09
3.69385
3.38761e-08
-3.95986e-09
2.27984e-08
1.23e-11
1.47662e-12
2.27836e-08
1.07484e-11
2.09147e-12
2.27995e-08
-1.37012e-11
2.9001e-12
-1.18284e-11
2.19963e-12
4.47344e-07
5.44342e-11
6.88709e-13
4.47281e-07
4.92174e-11
5.58936e-12
4.47352e-07
-6.67623e-11
1.14191e-11
-4.42612e-11
6.39177e-12
8.01959e-06
2.25724e-10
-3.18915e-11
8.01937e-06
1.28521e-10
3.43998e-12
8.01964e-06
-1.90517e-10
4.24684e-11
-1.16225e-10
7.28496e-12
0.000136853
4.79125e-10
-3.03749e-10
0.000136852
1.99294e-10
-7.44409e-11
0.000136853
-3.56992e-10
1.45741e-10
-1.62635e-10
-7.27014e-11
0.00218153
-4.16238e-11
-1.47426e-09
0.00218152
4.47846e-10
-1.71534e-10
0.00218153
3.285e-11
8.50313e-10
-5.35325e-10
-3.93714e-10
0.0314941
-3.28608e-09
-4.94773e-09
0.0314941
1.46165e-09
1.24488e-09
0.0314941
2.53989e-09
4.56608e-09
-2.43723e-09
-1.30531e-09
0.389706
-6.96136e-09
-1.22448e-08
0.389706
4.827e-09
7.62558e-09
0.389706
8.09759e-09
1.47202e-08
-3.55397e-09
-4.63616e-09
3.69385
-2.70751e-08
3.69385
-4.02212e-09
3.69385
2.50244e-08
2.3658e-09
2.28024e-08
1.19447e-11
3.84396e-12
2.27877e-08
1.18058e-11
5.00281e-12
2.28026e-08
-1.10226e-11
-8.76078e-13
-1.05853e-11
-1.85956e-12
4.47387e-07
4.85214e-11
2.05203e-11
4.47324e-07
5.36041e-11
2.70341e-11
4.47389e-07
-5.26567e-11
-1.21732e-11
-4.02763e-11
-1.84367e-11
8.01996e-06
1.78114e-10
9.37423e-11
8.01973e-06
1.41513e-10
1.44103e-10
8.01997e-06
-1.3127e-10
-1.18945e-10
-1.16952e-10
-1.6015e-10
0.000136855
2.08166e-10
5.56537e-10
0.000136854
2.36551e-10
8.5159e-10
0.000136855
-1.85673e-10
-6.99753e-10
-2.64232e-10
-9.36995e-10
0.00218154
-8.54186e-10
2.83295e-09
0.00218154
6.02806e-10
4.33543e-09
0.00218154
4.5458e-10
-3.16209e-09
-1.06796e-09
-4.336e-09
0.0314941
-4.80588e-09
9.58969e-09
0.0314941
1.89932e-09
1.56498e-08
0.0314941
3.63069e-09
-9.81397e-09
-3.17646e-09
-1.42801e-08
0.389706
-8.44732e-09
8.81366e-09
0.389706
5.87467e-09
2.08465e-08
0.389706
1.06292e-08
-1.13968e-08
-3.44783e-09
-1.98593e-08
3.69385
7.10763e-09
3.69385
-8.12986e-09
3.69385
-4.82739e-09
6.7515e-09
2.2784e-08
1.66025e-11
4.07955e-12
2.27647e-08
1.89207e-11
5.38532e-12
2.27824e-08
-1.42928e-11
-4.22292e-12
-1.5862e-11
-4.78657e-12
4.47166e-07
7.79882e-11
2.88675e-11
4.47083e-07
9.59375e-11
3.34851e-11
4.47161e-07
-7.50741e-11
-2.95038e-11
-7.55552e-11
-3.38825e-11
8.01788e-06
2.95716e-10
1.70366e-10
8.01757e-06
3.43323e-10
2.04481e-10
8.01786e-06
-2.63309e-10
-2.16771e-10
-3.1295e-10
-2.39204e-10
0.000136839
5.79204e-10
1.11816e-09
0.000136838
9.19007e-10
1.28435e-09
0.000136838
-6.68684e-10
-1.14109e-09
-9.78304e-10
-1.27856e-09
0.00218144
-4.87776e-10
5.59591e-09
0.00218143
1.50622e-09
6.2713e-09
0.00218144
-2.08085e-10
-5.17318e-09
-2.12962e-09
-5.85325e-09
0.0314937
-4.82879e-09
1.85724e-08
0.0314937
1.40263e-09
2.01833e-08
0.0314937
3.59585e-09
-1.72801e-08
-2.71208e-09
-1.9107e-08
0.389705
-6.6671e-09
3.39441e-08
0.389705
3.3684e-09
3.27647e-08
0.389705
8.53353e-09
-3.80488e-08
-1.29717e-09
-3.6736e-08
3.69385
4.08354e-09
3.69385
-1.41056e-08
3.69385
1.36243e-09
1.3499e-08
2.27466e-08
2.41348e-11
2.01564e-12
2.27205e-08
2.90188e-11
2.49434e-12
2.27434e-08
-2.20985e-11
-5.07563e-12
-2.45493e-11
-4.96361e-12
4.4672e-07
1.27058e-10
1.99667e-11
4.4661e-07
1.54499e-10
1.85768e-11
4.46711e-07
-1.21802e-10
-3.06223e-11
-1.30682e-10
-3.12432e-11
8.01367e-06
5.1682e-10
1.49229e-10
8.01327e-06
6.26e-10
1.37412e-10
8.01364e-06
-5.29768e-10
-1.84986e-10
-5.80791e-10
-1.86284e-10
0.000136806
1.42057e-09
1.04182e-09
0.000136805
1.90855e-09
9.39611e-10
0.000136805
-1.62848e-09
-8.99036e-10
-1.8667e-09
-9.01313e-10
0.00218124
1.63627e-09
5.18482e-09
0.00218124
3.71817e-09
4.42388e-09
0.00218124
-2.32085e-09
-4.1005e-09
-3.94624e-09
-3.92073e-09
0.0314928
-3.94503e-09
1.79096e-08
0.0314928
2.06654e-09
1.30049e-08
0.0314928
3.66976e-09
-1.53741e-08
-2.79399e-09
-1.30819e-08
0.389703
-1.26263e-08
2.79997e-08
0.389703
-2.20824e-09
1.06971e-08
0.389703
1.34502e-08
-3.05204e-08
2.35654e-09
-1.82271e-08
3.69385
4.09681e-08
3.69385
-1.65662e-08
3.69385
-3.94091e-08
2.08185e-08
2.27099e-08
3.05676e-11
2.26796e-08
3.48424e-11
2.27071e-08
-2.97251e-11
-3.18848e-11
4.46292e-07
1.6932e-10
4.46166e-07
1.86995e-10
4.46284e-07
-1.65278e-10
-1.80608e-10
8.00965e-06
7.37068e-10
8.00921e-06
7.77833e-10
8.00964e-06
-7.33241e-10
-8.16776e-10
0.000136774
2.29554e-09
0.000136774
2.43137e-09
0.000136774
-2.24813e-09
-2.60003e-09
0.00218105
3.50812e-09
0.00218105
4.55892e-09
0.00218105
-3.22622e-09
-4.65686e-09
0.0314921
-9.08863e-10
0.0314921
1.30385e-09
0.0314921
2.14331e-09
-7.27772e-10
0.389702
-8.98528e-09
0.389702
-8.44709e-09
0.389702
8.11929e-09
7.08658e-09
3.69385
3.69385
3.69385
)
;

boundaryField
{
    movingWall
    {
        type            calculated;
        value           uniform 0;
    }
    CPLReceiveMD
    {
        type            calculated;
        value           uniform 0;
    }
    streamwiseIn
    {
        type            cyclic;
        value           nonuniform List<scalar> 0();
    }
    streamwiseOut
    {
        type            cyclic;
        value           nonuniform List<scalar> 0();
    }
    front
    {
        type            cyclic;
        value           nonuniform List<scalar> 
32
(
-2.44034e-12
-1.75994e-12
2.80417e-11
2.94187e-10
1.48533e-09
4.90118e-09
1.22347e-08
1.983e-08
-2.10047e-12
-6.73607e-12
-7.2543e-12
7.13473e-11
2.23402e-10
-5.5625e-10
-7.52469e-09
2.26924e-08
-2.74567e-12
-1.33009e-11
-5.13388e-11
-1.76579e-10
-8.86218e-10
-4.58942e-09
-1.506e-08
-2.21279e-08
-2.10697e-12
-7.20905e-12
-8.42127e-12
7.81101e-11
4.59942e-10
1.07636e-09
4.33636e-09
-1.68094e-08
)
;
    }
    back
    {
        type            cyclic;
        value           nonuniform List<scalar> 
32
(
2.44034e-12
1.75994e-12
-2.80417e-11
-2.94187e-10
-1.48533e-09
-4.90118e-09
-1.22347e-08
-1.983e-08
2.10047e-12
6.73607e-12
7.2543e-12
-7.13473e-11
-2.23402e-10
5.5625e-10
7.52469e-09
-2.26924e-08
2.74567e-12
1.33009e-11
5.13388e-11
1.76579e-10
8.86218e-10
4.58942e-09
1.506e-08
2.21279e-08
2.10697e-12
7.20905e-12
8.42127e-12
-7.81101e-11
-4.59942e-10
-1.07636e-09
-4.33636e-09
1.68094e-08
)
;
    }
    procBoundary1to0
    {
        type            processor;
        value           nonuniform List<scalar> 
64
(
-2.27344e-08
-4.46371e-07
-8.00975e-06
-0.000136773
-0.00218104
-0.031492
-0.389702
-3.69385
-2.27607e-08
-4.4672e-07
-8.01317e-06
-0.0001368
-0.00218121
-0.0314927
-0.389703
-3.69385
-2.27941e-08
-4.47143e-07
-8.01732e-06
-0.000136833
-0.00218141
-0.0314936
-0.389705
-3.69385
-2.28138e-08
-4.47406e-07
-8.01987e-06
-0.000136854
-0.00218153
-0.0314941
-0.389706
-3.69385
-2.28167e-08
-4.47444e-07
-8.02022e-06
-0.000136856
-0.00218154
-0.0314941
-0.389706
-3.69385
-2.28008e-08
-4.47236e-07
-8.01818e-06
-0.000136839
-0.00218144
-0.0314937
-0.389705
-3.69385
-2.27686e-08
-4.46815e-07
-8.01404e-06
-0.000136806
-0.00218124
-0.0314928
-0.389703
-3.69385
-2.2736e-08
-4.46409e-07
-8.0101e-06
-0.000136775
-0.00218105
-0.0314921
-0.389702
-3.69385
)
;
    }
    procBoundary1to0throughstreamwiseOut
    {
        type            processorCyclic;
        value           nonuniform List<scalar> 
64
(
2.27344e-08
4.46371e-07
8.00975e-06
0.000136773
0.00218104
0.031492
0.389702
3.69385
2.27609e-08
4.4672e-07
8.01317e-06
0.0001368
0.00218121
0.0314927
0.389703
3.69385
2.27936e-08
4.47142e-07
8.01732e-06
0.000136833
0.00218141
0.0314936
0.389705
3.69385
2.28142e-08
4.47406e-07
8.01987e-06
0.000136854
0.00218153
0.0314941
0.389706
3.69385
2.28173e-08
4.47443e-07
8.02022e-06
0.000136856
0.00218154
0.0314941
0.389706
3.69385
2.28013e-08
4.47236e-07
8.01818e-06
0.000136839
0.00218144
0.0314937
0.389705
3.69385
2.27682e-08
4.46814e-07
8.01404e-06
0.000136806
0.00218124
0.0314928
0.389703
3.69385
2.27362e-08
4.46409e-07
8.0101e-06
0.000136775
0.00218105
0.0314921
0.389702
3.69385
)
;
    }
}


// ************************************************************************* //
