/*--------------------------------*- C++ -*----------------------------------*\
| =========                 |                                                 |
| \\      /  F ield         | OpenFOAM: The Open Source CFD Toolbox           |
|  \\    /   O peration     | Version:  2112                                  |
|   \\  /    A nd           | Website:  www.openfoam.com                      |
|    \\/     M anipulation  |                                                 |
\*---------------------------------------------------------------------------*/
FoamFile
{
    version     2.0;
    format      ascii;
    arch        "LSB;label=32;scalar=64";
    class       volVectorField;
    location    "5";
    object      U_0;
}
// * * * * * * * * * * * * * * * * * * * * * * * * * * * * * * * * * * * * * //

dimensions      [0 1 -1 0 0 0 0];

internalField   nonuniform List<vector> 
256
(
(1.90899e-09 3.77561e-12 -4.36614e-13)
(1.90598e-09 3.8368e-12 -5.39066e-13)
(1.90624e-09 -1.11813e-13 -2.72546e-13)
(1.90954e-09 -1.19068e-13 -2.04534e-13)
(3.75031e-08 1.69573e-11 -1.41442e-12)
(3.74883e-08 1.72553e-11 -1.95737e-12)
(3.74884e-08 -9.88981e-12 -2.90156e-13)
(3.75033e-08 -9.9754e-12 3.54759e-13)
(6.73003e-07 6.16888e-11 -4.59659e-12)
(6.72952e-07 6.2399e-11 -8.11794e-12)
(6.72951e-07 -7.89439e-11 2.51845e-12)
(6.73003e-07 -7.88717e-11 7.38069e-12)
(1.14922e-05 2.54653e-10 -2.05301e-11)
(1.14922e-05 2.49711e-10 -3.96162e-11)
(1.14922e-05 -3.39872e-10 1.89383e-11)
(1.14922e-05 -3.36299e-10 5.1384e-11)
(0.000183261 8.37642e-10 -1.02065e-10)
(0.000183261 7.91948e-10 -1.92256e-10)
(0.000183261 -8.93558e-10 6.56092e-11)
(0.000183261 -8.81607e-10 2.45928e-10)
(0.0026461 1.04885e-09 -3.47304e-10)
(0.00264611 1.11384e-09 -7.17737e-10)
(0.00264611 -8.42635e-10 9.87909e-11)
(0.00264611 -9.90015e-10 8.68927e-10)
(0.0327445 -1.57813e-09 2.97225e-10)
(0.0327445 5.51403e-11 -8.73377e-10)
(0.0327445 1.83469e-09 -6.36804e-10)
(0.0327445 5.5562e-10 1.17802e-09)
(0.310374 -1.6865e-09 2.2135e-10)
(0.310374 -1.06198e-09 6.14892e-10)
(0.310374 1.7992e-09 -1.79244e-11)
(0.310374 1.5304e-09 3.47345e-11)
(1.91162e-09 3.46085e-12 -6.86765e-13)
(1.90878e-09 3.41568e-12 -7.73464e-13)
(1.90911e-09 1.10285e-13 -4.13884e-14)
(1.91197e-09 2.1849e-13 2.7008e-14)
(3.75327e-08 1.51141e-11 -2.81724e-12)
(3.75196e-08 1.46517e-11 -3.31874e-12)
(3.75204e-08 -7.72698e-12 1.69376e-12)
(3.75333e-08 -6.93811e-12 2.20009e-12)
(6.73292e-07 5.08569e-11 -1.37208e-11)
(6.73245e-07 4.79425e-11 -1.76128e-11)
(6.73247e-07 -6.67763e-11 1.61933e-11)
(6.73294e-07 -6.08873e-11 1.93325e-11)
(1.14945e-05 1.99128e-10 -8.29606e-11)
(1.14945e-05 1.81963e-10 -1.04073e-10)
(1.14945e-05 -2.90417e-10 9.1074e-11)
(1.14945e-05 -2.548e-10 1.10659e-10)
(0.000183275 6.41398e-10 -4.12272e-10)
(0.000183275 5.64443e-10 -5.02669e-10)
(0.000183275 -7.49614e-10 4.07928e-10)
(0.000183275 -6.01507e-10 5.07712e-10)
(0.00264617 9.65338e-10 -1.40321e-09)
(0.00264617 1.03893e-09 -1.66206e-09)
(0.00264617 -8.14453e-10 1.34832e-09)
(0.00264616 -7.91169e-10 1.70694e-09)
(0.0327446 -1.1231e-09 -2.26723e-09)
(0.0327446 -5.61932e-10 -2.54899e-09)
(0.0327447 1.57818e-09 2.4584e-09)
(0.0327446 8.69771e-10 3.007e-09)
(0.310374 -1.6492e-09 1.09542e-10)
(0.310374 -1.36778e-09 2.06731e-10)
(0.310374 1.94344e-09 -3.61874e-10)
(0.310374 1.46548e-09 -1.20581e-09)
(1.91453e-09 3.02766e-12 -3.37773e-13)
(1.91227e-09 2.92621e-12 -4.14545e-13)
(1.91267e-09 5.82773e-13 3.40061e-13)
(1.91494e-09 7.40136e-13 3.60502e-13)
(3.75688e-08 1.21931e-11 -2.39833e-12)
(3.75586e-08 1.1077e-11 -2.56307e-12)
(3.75596e-08 -3.83939e-12 2.63412e-12)
(3.75697e-08 -2.78606e-12 2.74196e-12)
(6.73643e-07 3.2007e-11 -1.49575e-11)
(6.73604e-07 2.50844e-11 -1.65208e-11)
(6.73607e-07 -4.5839e-11 1.89442e-11)
(6.73646e-07 -3.87016e-11 1.928e-11)
(1.14973e-05 1.07002e-10 -9.98336e-11)
(1.14972e-05 7.0102e-11 -1.0811e-10)
(1.14972e-05 -1.94744e-10 1.01109e-10)
(1.14973e-05 -1.55457e-10 1.01734e-10)
(0.000183292 3.46965e-10 -4.96414e-10)
(0.000183292 2.16503e-10 -5.29479e-10)
(0.000183292 -4.26178e-10 4.80027e-10)
(0.000183292 -2.91938e-10 4.68201e-10)
(0.00264624 3.42328e-10 -1.64108e-09)
(0.00264624 3.81713e-10 -1.67556e-09)
(0.00264624 -6.35186e-11 1.69666e-09)
(0.00264624 -8.98501e-11 1.52447e-09)
(0.0327448 -9.27235e-10 -2.96477e-09)
(0.0327448 9.07267e-10 -2.46227e-09)
(0.0327448 1.07252e-09 3.57933e-09)
(0.0327448 -7.33241e-10 2.6487e-09)
(0.310374 -1.12988e-09 -2.36781e-09)
(0.310374 3.96465e-10 1.72007e-09)
(0.310374 1.00425e-09 1.32708e-09)
(0.310374 -5.27985e-10 -2.49609e-09)
(1.91632e-09 2.72305e-12 -1.648e-14)
(1.91456e-09 2.64006e-12 -7.6763e-15)
(1.91499e-09 9.93512e-13 3.47047e-13)
(1.91678e-09 1.13655e-12 3.17769e-13)
(3.75915e-08 9.74482e-12 -9.06214e-13)
(3.75837e-08 8.72842e-12 -6.51617e-13)
(3.75846e-08 -8.15799e-13 1.80426e-12)
(3.75924e-08 9.14925e-14 1.53908e-12)
(6.7386e-07 1.47706e-11 -8.10562e-12)
(6.73828e-07 8.85227e-12 -6.26807e-12)
(6.73831e-07 -3.03036e-11 1.04071e-11)
(6.73863e-07 -2.42233e-11 8.39357e-12)
(1.14991e-05 2.07818e-11 -6.03164e-11)
(1.14989e-05 -7.99042e-12 -4.71229e-11)
(1.14989e-05 -1.19615e-10 5.13222e-11)
(1.14991e-05 -8.85629e-11 3.81505e-11)
(0.000183302 6.90468e-11 -3.02999e-10)
(0.000183302 -1.43208e-11 -2.19535e-10)
(0.000183302 -1.57124e-10 2.57939e-10)
(0.000183302 -7.63111e-11 1.75322e-10)
(0.00264628 4.41848e-11 -1.02317e-09)
(0.00264628 3.57257e-10 -5.89562e-10)
(0.00264628 3.40852e-10 9.98548e-10)
(0.00264628 -1.70959e-11 5.56541e-10)
(0.0327449 -1.39602e-09 -1.64006e-09)
(0.0327449 9.58714e-10 7.13074e-11)
(0.0327449 1.37298e-09 1.96945e-09)
(0.0327449 -9.51154e-10 1.09822e-10)
(0.310374 -1.76586e-09 -4.12465e-09)
(0.310374 5.73928e-10 -9.39574e-10)
(0.310374 1.35846e-09 3.40311e-09)
(0.310374 -9.38743e-10 2.41173e-10)
(1.91662e-09 2.70441e-12 2.20728e-13)
(1.91492e-09 2.69151e-12 2.99856e-13)
(1.91529e-09 1.13192e-12 7.14839e-14)
(1.91703e-09 1.2017e-12 -4.95964e-15)
(3.75949e-08 9.21418e-12 9.29029e-13)
(3.75874e-08 8.77331e-12 1.45251e-12)
(3.75879e-08 -1.08448e-13 -6.34483e-14)
(3.75954e-08 2.11294e-13 -6.00621e-13)
(6.73891e-07 1.00037e-11 3.08283e-12)
(6.73859e-07 7.87299e-12 7.0531e-12)
(6.73859e-07 -2.7499e-11 -3.21783e-12)
(6.73891e-07 -2.51415e-11 -7.00314e-12)
(1.14993e-05 -2.22329e-12 1.43993e-11)
(1.14991e-05 -8.88291e-12 3.93083e-11)
(1.14991e-05 -1.0306e-10 -2.23992e-11)
(1.14993e-05 -9.36351e-11 -4.59796e-11)
(0.000183303 -1.00643e-11 7.51379e-11)
(0.000183303 1.628e-11 2.12059e-10)
(0.000183303 -7.49334e-11 -9.33776e-11)
(0.000183303 -1.00617e-10 -2.22249e-10)
(0.00264628 -1.56039e-10 2.1371e-10)
(0.00264628 5.16255e-10 8.23796e-10)
(0.00264628 5.74135e-10 -2.01354e-10)
(0.00264628 -1.40028e-10 -7.59741e-10)
(0.0327449 -1.89381e-09 -5.32307e-10)
(0.0327449 1.04742e-09 1.03634e-09)
(0.0327449 1.71916e-09 3.8418e-10)
(0.0327449 -1.16965e-09 -9.99873e-10)
(0.310374 -2.20698e-09 -3.55588e-10)
(0.310374 4.83345e-10 -5.66189e-10)
(0.310374 1.61115e-09 -1.77488e-10)
(0.310374 -1.00937e-09 -8.27862e-12)
(1.91524e-09 2.97406e-12 4.43904e-13)
(1.91314e-09 3.05661e-12 5.53706e-13)
(1.91341e-09 9.31293e-13 -1.5491e-13)
(1.91555e-09 9.01372e-13 -2.3388e-13)
(3.75773e-08 1.07928e-11 2.44855e-12)
(3.75679e-08 1.1216e-11 3.00328e-12)
(3.75679e-08 -2.04143e-12 -1.77813e-12)
(3.75772e-08 -2.50658e-12 -2.27919e-12)
(6.73718e-07 1.97596e-11 1.28553e-11)
(6.73681e-07 2.28722e-11 1.73325e-11)
(6.73679e-07 -3.85764e-11 -1.52631e-11)
(6.73716e-07 -4.10299e-11 -1.83147e-11)
(1.14979e-05 4.74851e-11 8.05274e-11)
(1.14978e-05 6.79167e-11 1.0718e-10)
(1.14977e-05 -1.53026e-10 -8.59538e-11)
(1.14978e-05 -1.68264e-10 -1.0304e-10)
(0.000183295 1.43791e-10 4.01071e-10)
(0.000183294 2.75679e-10 5.33296e-10)
(0.000183294 -2.24348e-10 -4.03962e-10)
(0.000183294 -3.40132e-10 -4.79012e-10)
(0.00264624 -1.61387e-10 1.31996e-09)
(0.00264624 6.6289e-10 1.77531e-09)
(0.00264624 4.98055e-10 -1.36739e-09)
(0.00264624 -3.05197e-10 -1.57275e-09)
(0.0327448 -1.78635e-09 2.07066e-09)
(0.0327448 6.47366e-10 2.68772e-09)
(0.0327448 1.50665e-09 -2.65563e-09)
(0.0327448 -9.08416e-10 -2.74206e-09)
(0.310374 -1.78655e-09 1.49903e-12)
(0.310374 -2.19024e-10 -8.02499e-10)
(0.310374 1.15254e-09 2.80809e-10)
(0.310374 -4.05774e-10 5.25518e-10)
(1.91241e-09 3.41944e-12 5.53662e-13)
(1.90963e-09 3.57576e-12 6.53759e-13)
(1.90982e-09 4.96966e-13 -1.38995e-13)
(1.9126e-09 4.06568e-13 -1.51005e-13)
(3.75413e-08 1.37696e-11 2.88375e-12)
(3.7529e-08 1.49463e-11 3.06795e-12)
(3.75286e-08 -5.72589e-12 -2.28049e-12)
(3.75409e-08 -6.50664e-12 -2.49607e-12)
(6.73369e-07 3.89213e-11 1.64714e-11)
(6.73324e-07 4.64557e-11 1.75857e-11)
(6.7332e-07 -5.86758e-11 -1.82447e-11)
(6.73365e-07 -6.24601e-11 -1.96574e-11)
(1.14951e-05 1.41596e-10 1.05964e-10)
(1.1495e-05 1.8218e-10 1.08418e-10)
(1.1495e-05 -2.4706e-10 -9.76479e-11)
(1.14951e-05 -2.6423e-10 -1.07139e-10)
(0.000183277 4.5082e-10 5.2334e-10)
(0.000183278 6.32629e-10 5.09675e-10)
(0.000183278 -5.5141e-10 -4.5226e-10)
(0.000183277 -6.4351e-10 -4.91881e-10)
(0.00264617 4.75958e-10 1.77467e-09)
(0.00264617 1.29706e-09 1.56949e-09)
(0.00264617 -2.74713e-10 -1.59411e-09)
(0.00264617 -9.61601e-10 -1.63367e-09)
(0.0327447 -2.56671e-09 3.19984e-09)
(0.0327447 -1.16167e-10 2.2993e-09)
(0.0327447 2.49564e-09 -3.32671e-09)
(0.0327447 -1.73066e-10 -2.82686e-09)
(0.310374 -2.71221e-09 2.50205e-09)
(0.310374 -1.28644e-09 -1.76877e-09)
(0.310374 2.38855e-09 -1.13167e-09)
(0.310374 7.18605e-10 2.46963e-09)
(1.90956e-09 3.80029e-12 2.59345e-13)
(1.90636e-09 3.92267e-12 2.27437e-13)
(1.90653e-09 8.76739e-14 -1.50745e-13)
(1.90974e-09 -1.70445e-14 -1.10892e-13)
(3.75065e-08 1.66257e-11 1.27494e-12)
(3.7492e-08 1.74277e-11 9.67106e-13)
(3.74918e-08 -8.78381e-12 -1.71987e-12)
(3.75062e-08 -9.76937e-12 -1.45996e-12)
(6.73034e-07 5.79365e-11 8.97125e-12)
(6.72984e-07 6.1889e-11 6.54845e-12)
(6.72981e-07 -7.38986e-11 -1.13371e-11)
(6.73031e-07 -7.97868e-11 -9.41127e-12)
(1.14924e-05 2.35249e-10 6.27496e-11)
(1.14924e-05 2.50139e-10 4.40158e-11)
(1.14924e-05 -3.13808e-10 -5.64424e-11)
(1.14924e-05 -3.4313e-10 -4.57696e-11)
(0.000183262 7.63331e-10 3.14198e-10)
(0.000183262 8.1513e-10 1.88907e-10)
(0.000183262 -7.80129e-10 -2.61906e-10)
(0.000183262 -9.03859e-10 -2.04023e-10)
(0.00264611 8.34393e-10 1.10641e-09)
(0.00264611 1.28669e-09 4.76312e-10)
(0.00264611 -5.71992e-10 -9.79478e-10)
(0.00264611 -1.13172e-09 -6.90743e-10)
(0.0327445 -1.52609e-09 1.83663e-09)
(0.0327445 -8.34595e-10 -2.10051e-10)
(0.0327445 1.75956e-09 -1.77223e-09)
(0.0327445 9.31607e-10 -3.74767e-10)
(0.310374 -1.72434e-09 4.01361e-09)
(0.310374 -2.14303e-09 1.53534e-09)
(0.310374 1.74643e-09 -3.32205e-09)
(0.310374 2.07386e-09 4.39118e-10)
)
;

boundaryField
{
    movingWall
    {
        type            fixedValue;
        value           uniform (1 0 0);
    }
    CPLReceiveMD
    {
        type            fixedValue;
        value           uniform (0 0 0);
    }
    streamwiseIn
    {
        type            cyclic;
    }
    streamwiseOut
    {
        type            cyclic;
    }
    front
    {
        type            cyclic;
    }
    back
    {
        type            cyclic;
    }
    procBoundary1to0
    {
        type            processor;
        value           nonuniform List<vector> 
64
(
(1.90948e-09 -2.68234e-13 -1.84863e-13)
(3.75032e-08 -1.01085e-11 3.56314e-13)
(6.73003e-07 -7.88682e-11 7.38077e-12)
(1.14922e-05 -3.36305e-10 5.1384e-11)
(0.000183261 -8.81609e-10 2.45928e-10)
(0.00264611 -9.90015e-10 8.68927e-10)
(0.0327445 5.5562e-10 1.17802e-09)
(0.310374 1.5304e-09 3.47348e-11)
(1.91163e-09 1.8079e-13 -2.51977e-13)
(3.75334e-08 -6.9614e-12 2.19689e-12)
(6.73294e-07 -6.088e-11 1.93235e-11)
(1.14945e-05 -2.54804e-10 1.10657e-10)
(0.000183275 -6.01508e-10 5.07711e-10)
(0.00264616 -7.9117e-10 1.70694e-09)
(0.0327446 8.69771e-10 3.007e-09)
(0.310374 1.46548e-09 -1.20581e-09)
(1.91487e-09 7.24309e-13 3.71518e-13)
(3.75697e-08 -2.79377e-12 2.75677e-12)
(6.73646e-07 -3.86969e-11 1.92728e-11)
(1.14973e-05 -1.5546e-10 1.01732e-10)
(0.000183292 -2.91939e-10 4.682e-10)
(0.00264624 -8.98504e-11 1.52447e-09)
(0.0327448 -7.33241e-10 2.6487e-09)
(0.310374 -5.27985e-10 -2.49609e-09)
(1.9167e-09 1.11835e-12 3.50307e-13)
(3.75924e-08 7.65553e-14 1.54985e-12)
(6.73863e-07 -2.42218e-11 8.39066e-12)
(1.14991e-05 -8.85646e-11 3.81494e-11)
(0.000183302 -7.63118e-11 1.75322e-10)
(0.00264628 -1.70962e-11 5.56541e-10)
(0.0327449 -9.51154e-10 1.09822e-10)
(0.310374 -9.38743e-10 2.41173e-10)
(1.91695e-09 1.18527e-12 -5.40152e-15)
(3.75954e-08 1.96473e-13 -5.9905e-13)
(6.73891e-07 -2.5141e-11 -7.00335e-12)
(1.14993e-05 -9.36365e-11 -4.59796e-11)
(0.000183303 -1.00617e-10 -2.22249e-10)
(0.00264628 -1.40028e-10 -7.59741e-10)
(0.0327449 -1.16965e-09 -9.99873e-10)
(0.310374 -1.00937e-09 -8.27862e-12)
(1.91547e-09 8.85213e-13 -2.75621e-13)
(3.75772e-08 -2.52037e-12 -2.28803e-12)
(6.73716e-07 -4.1029e-11 -1.83121e-11)
(1.14978e-05 -1.68265e-10 -1.03039e-10)
(0.000183294 -3.40133e-10 -4.79011e-10)
(0.00264624 -3.05198e-10 -1.57275e-09)
(0.0327448 -9.08416e-10 -2.74206e-09)
(0.310374 -4.05774e-10 5.25518e-10)
(1.91255e-09 3.97902e-13 -1.81249e-13)
(3.75409e-08 -6.50863e-12 -2.514e-12)
(6.73365e-07 -6.24561e-11 -1.96501e-11)
(1.14951e-05 -2.64233e-10 -1.07137e-10)
(0.000183277 -6.43511e-10 -4.91881e-10)
(0.00264617 -9.61602e-10 -1.63367e-09)
(0.0327447 -1.73066e-10 -2.82686e-09)
(0.310374 7.18605e-10 2.46963e-09)
(1.9094e-09 -4.35344e-14 1.77296e-13)
(3.75062e-08 -9.7821e-12 -1.45869e-12)
(6.73031e-07 -7.97789e-11 -9.40201e-12)
(1.14924e-05 -3.43134e-10 -4.57676e-11)
(0.000183262 -9.0386e-10 -2.04023e-10)
(0.00264611 -1.13172e-09 -6.90743e-10)
(0.0327445 9.31607e-10 -3.74766e-10)
(0.310374 2.07385e-09 4.39119e-10)
)
;
    }
    procBoundary1to0throughstreamwiseOut
    {
        type            processorCyclic;
        value           nonuniform List<vector> 
64
(
(1.90958e-09 3.76276e-12 -4.46115e-13)
(3.75031e-08 1.69478e-11 -1.41581e-12)
(6.73003e-07 6.16903e-11 -4.59706e-12)
(1.14922e-05 2.54652e-10 -2.05303e-11)
(0.000183261 8.37642e-10 -1.02066e-10)
(0.0026461 1.04885e-09 -3.47304e-10)
(0.0327445 -1.57813e-09 2.97225e-10)
(0.310374 -1.6865e-09 2.21349e-10)
(1.91168e-09 3.45359e-12 -6.99669e-13)
(3.75326e-08 1.51094e-11 -2.81495e-12)
(6.73292e-07 5.08585e-11 -1.37213e-11)
(1.14945e-05 1.99128e-10 -8.29605e-11)
(0.000183275 6.41398e-10 -4.12272e-10)
(0.00264617 9.65338e-10 -1.40321e-09)
(0.0327446 -1.1231e-09 -2.26723e-09)
(0.310374 -1.6492e-09 1.09542e-10)
(1.91453e-09 3.02398e-12 -3.40402e-13)
(3.75688e-08 1.21906e-11 -2.39488e-12)
(6.73643e-07 3.20078e-11 -1.49581e-11)
(1.14973e-05 1.07002e-10 -9.98336e-11)
(0.000183292 3.46965e-10 -4.96414e-10)
(0.00264624 3.42328e-10 -1.64108e-09)
(0.0327448 -9.27235e-10 -2.96477e-09)
(0.310374 -1.12988e-09 -2.36781e-09)
(1.91639e-09 2.71966e-12 -1.48387e-14)
(3.75915e-08 9.74205e-12 -9.04823e-13)
(6.7386e-07 1.47709e-11 -8.1058e-12)
(1.14991e-05 2.07816e-11 -6.03164e-11)
(0.000183302 6.90469e-11 -3.02999e-10)
(0.00264628 4.41849e-11 -1.02317e-09)
(0.0327449 -1.39602e-09 -1.64007e-09)
(0.310374 -1.76586e-09 -4.12465e-09)
(1.9167e-09 2.70082e-12 2.2243e-13)
(3.75949e-08 9.2112e-12 9.28747e-13)
(6.73891e-07 1.00039e-11 3.08309e-12)
(1.14993e-05 -2.22348e-12 1.43994e-11)
(0.000183303 -1.00643e-11 7.51379e-11)
(0.00264628 -1.56039e-10 2.1371e-10)
(0.0327449 -1.89381e-09 -5.32307e-10)
(0.310374 -2.20698e-09 -3.55588e-10)
(1.91531e-09 2.96925e-12 4.47542e-13)
(3.75773e-08 1.07889e-11 2.44707e-12)
(6.73718e-07 1.976e-11 1.28559e-11)
(1.14979e-05 4.74849e-11 8.05275e-11)
(0.000183295 1.43791e-10 4.01071e-10)
(0.00264624 -1.61387e-10 1.31996e-09)
(0.0327448 -1.78635e-09 2.07066e-09)
(0.310374 -1.78655e-09 1.49917e-12)
(1.9124e-09 3.41255e-12 5.6409e-13)
(3.75412e-08 1.37644e-11 2.88197e-12)
(6.73369e-07 3.89221e-11 1.64722e-11)
(1.14951e-05 1.41596e-10 1.05965e-10)
(0.000183277 4.5082e-10 5.2334e-10)
(0.00264617 4.75958e-10 1.77467e-09)
(0.0327447 -2.56671e-09 3.19984e-09)
(0.310374 -2.71221e-09 2.50205e-09)
(1.90959e-09 3.78902e-12 2.6697e-13)
(3.75065e-08 1.66168e-11 1.27273e-12)
(6.73034e-07 5.79376e-11 8.97127e-12)
(1.14924e-05 2.35249e-10 6.27494e-11)
(0.000183262 7.63331e-10 3.14198e-10)
(0.00264611 8.34394e-10 1.10641e-09)
(0.0327445 -1.52609e-09 1.83663e-09)
(0.310374 -1.72434e-09 4.01361e-09)
)
;
    }
}


// ************************************************************************* //
