/*--------------------------------*- C++ -*----------------------------------*\
| =========                 |                                                 |
| \\      /  F ield         | OpenFOAM: The Open Source CFD Toolbox           |
|  \\    /   O peration     | Version:  2112                                  |
|   \\  /    A nd           | Website:  www.openfoam.com                      |
|    \\/     M anipulation  |                                                 |
\*---------------------------------------------------------------------------*/
FoamFile
{
    version     2.0;
    format      ascii;
    arch        "LSB;label=32;scalar=64";
    class       volScalarField;
    location    "3";
    object      p;
}
// * * * * * * * * * * * * * * * * * * * * * * * * * * * * * * * * * * * * * //

dimensions      [0 2 -2 0 0 0 0];

internalField   nonuniform List<scalar> 
256
(
-5.97008e-12
-3.41671e-12
9.93994e-16
-7.0641e-13
-4.0777e-11
-3.97476e-11
-3.41561e-11
-3.46533e-11
5.87521e-11
6.21937e-11
8.72918e-11
8.4751e-11
7.64138e-10
7.65913e-10
8.62017e-10
8.64166e-10
2.631e-09
2.59653e-09
2.91822e-09
2.95218e-09
4.68741e-09
4.76441e-09
5.51976e-09
5.50315e-09
5.68396e-09
4.32934e-09
7.54374e-09
8.7452e-09
7.64542e-09
7.4883e-09
8.56813e-09
8.6272e-09
-8.49746e-12
-6.63701e-12
-3.04069e-12
-4.03933e-12
-3.6523e-11
-3.56265e-11
-3.04265e-11
-3.0801e-11
8.1395e-11
8.3636e-11
1.07461e-10
1.07055e-10
8.20556e-10
8.14907e-10
9.08493e-10
9.19482e-10
2.68566e-09
2.61081e-09
2.93128e-09
3.00476e-09
4.49056e-09
4.41285e-09
5.2441e-09
5.39357e-09
4.99671e-09
3.91035e-09
6.59487e-09
7.66741e-09
4.91663e-09
6.50875e-09
8.72845e-09
7.10967e-09
-1.19553e-11
-1.15834e-11
-9.012e-12
-9.21009e-12
-3.32614e-11
-3.24661e-11
-2.78038e-11
-2.81134e-11
1.01001e-10
1.03611e-10
1.25151e-10
1.27089e-10
8.81926e-10
8.72012e-10
9.63168e-10
9.79403e-10
2.7521e-09
2.65648e-09
2.98684e-09
3.06829e-09
4.37657e-09
4.25999e-09
5.12272e-09
5.28029e-09
4.73379e-09
3.17917e-09
6.46526e-09
7.96478e-09
6.49642e-09
6.13001e-09
7.32853e-09
7.673e-09
-1.4282e-11
-1.46386e-11
-1.30006e-11
-1.24805e-11
-3.23449e-11
-3.16335e-11
-2.73506e-11
-2.7677e-11
1.07689e-10
1.1171e-10
1.30792e-10
1.34452e-10
9.13351e-10
9.05197e-10
9.951e-10
1.00893e-09
2.78481e-09
2.69647e-09
3.03238e-09
3.0968e-09
4.37136e-09
4.31964e-09
5.17445e-09
5.26875e-09
4.97915e-09
3.67219e-09
7.05492e-09
8.27772e-09
7.00956e-09
8.01721e-09
9.70537e-09
8.61614e-09
-1.48042e-11
-1.53722e-11
-1.38521e-11
-1.32175e-11
-3.34342e-11
-3.26787e-11
-2.83143e-11
-2.86981e-11
1.0393e-10
1.08985e-10
1.28317e-10
1.30969e-10
9.09402e-10
9.0469e-10
9.977e-10
1.00309e-09
2.75597e-09
2.70237e-09
3.04473e-09
3.08005e-09
4.40135e-09
4.42196e-09
5.33656e-09
5.34642e-09
5.64974e-09
4.50418e-09
7.99403e-09
9.12067e-09
8.93174e-09
9.57223e-09
1.19052e-08
1.1359e-08
-1.34192e-11
-1.39564e-11
-1.2149e-11
-1.16198e-11
-3.60153e-11
-3.51875e-11
-3.04379e-11
-3.08741e-11
9.1773e-11
9.67545e-11
1.19076e-10
1.18553e-10
8.67747e-10
8.70644e-10
9.67691e-10
9.65151e-10
2.69728e-09
2.68295e-09
3.02944e-09
3.04103e-09
4.54856e-09
4.72789e-09
5.53566e-09
5.41242e-09
6.35381e-09
5.29223e-09
8.90097e-09
9.99895e-09
1.01203e-08
1.21835e-08
1.33938e-08
1.14728e-08
-1.04728e-11
-1.03095e-11
-7.54985e-12
-7.72979e-12
-3.96626e-11
-3.88518e-11
-3.35986e-11
-3.40309e-11
7.12894e-11
7.60361e-11
1.01089e-10
9.79855e-11
8.04146e-10
8.12763e-10
9.1321e-10
9.05595e-10
2.64777e-09
2.65546e-09
2.9909e-09
2.98454e-09
4.69046e-09
4.8786e-09
5.74714e-09
5.61375e-09
6.63968e-09
5.84855e-09
9.23332e-09
1.00662e-08
9.81701e-09
9.73824e-09
1.2971e-08
1.30695e-08
-7.2148e-12
-5.48813e-12
-1.83587e-12
-2.75241e-12
-4.21994e-11
-4.12565e-11
-3.56774e-11
-3.6161e-11
5.44284e-11
5.8986e-11
8.45554e-11
8.09293e-11
7.56702e-10
7.65877e-10
8.64014e-10
8.5742e-10
2.62154e-09
2.61848e-09
2.94634e-09
2.94837e-09
4.80907e-09
4.96236e-09
5.75937e-09
5.62322e-09
6.4994e-09
5.53761e-09
8.57088e-09
9.39682e-09
8.60807e-09
1.01508e-08
1.10903e-08
9.53277e-09
)
;

boundaryField
{
    movingWall
    {
        type            zeroGradient;
    }
    CPLReceiveMD
    {
        type            zeroGradient;
    }
    streamwiseIn
    {
        type            cyclic;
    }
    streamwiseOut
    {
        type            cyclic;
    }
    front
    {
        type            cyclic;
    }
    back
    {
        type            cyclic;
    }
    procBoundary0to1
    {
        type            processor;
        value           nonuniform List<scalar> 
64
(
-6.27026e-12
-4.08611e-11
5.87392e-11
7.64135e-10
2.631e-09
4.68741e-09
5.68396e-09
7.64542e-09
-8.71281e-12
-3.65886e-11
8.13834e-11
8.20553e-10
2.68566e-09
4.49056e-09
4.99671e-09
4.91662e-09
-1.20862e-11
-3.33089e-11
1.00991e-10
8.81924e-10
2.75209e-09
4.37657e-09
4.73379e-09
6.49642e-09
-1.43885e-11
-3.23881e-11
1.0768e-10
9.13348e-10
2.78481e-09
4.37136e-09
4.97915e-09
7.00956e-09
-1.49379e-11
-3.34861e-11
1.03919e-10
9.094e-10
2.75597e-09
4.40135e-09
5.64974e-09
8.93174e-09
-1.36127e-11
-3.60831e-11
9.17604e-11
8.67744e-10
2.69728e-09
4.54856e-09
6.35381e-09
1.01203e-08
-1.0744e-11
-3.97473e-11
7.12745e-11
8.04142e-10
2.64777e-09
4.69046e-09
6.63967e-09
9.81701e-09
-7.54487e-12
-4.22967e-11
5.44114e-11
7.56698e-10
2.62153e-09
4.80907e-09
6.4994e-09
8.60807e-09
)
;
    }
    procBoundary0to1throughstreamwiseIn
    {
        type            processorCyclic;
        value           nonuniform List<scalar> 
64
(
-6.65773e-12
-3.57784e-11
8.47657e-11
8.6419e-10
2.95219e-09
5.50315e-09
8.7452e-09
8.6272e-09
-8.61541e-12
-3.17437e-11
1.07049e-10
9.195e-10
3.00477e-09
5.39357e-09
7.66741e-09
7.10968e-09
-1.14266e-11
-2.86907e-11
1.27069e-10
9.79414e-10
3.06829e-09
5.28029e-09
7.96478e-09
7.673e-09
-1.3382e-11
-2.80019e-11
1.34434e-10
1.00894e-09
3.09681e-09
5.26875e-09
8.27772e-09
8.61614e-09
-1.37368e-11
-2.89259e-11
1.30956e-10
1.0031e-09
3.08006e-09
5.34642e-09
9.12067e-09
1.1359e-08
-1.23739e-11
-3.11517e-11
1.18543e-10
9.6516e-10
3.04104e-09
5.41242e-09
9.99895e-09
1.14728e-08
-9.67039e-12
-3.453e-11
9.79776e-11
9.05608e-10
2.98455e-09
5.61375e-09
1.00662e-08
1.30695e-08
-7.08361e-12
-3.70378e-11
8.09313e-11
8.57439e-10
2.94838e-09
5.62322e-09
9.39682e-09
9.53277e-09
)
;
    }
}


// ************************************************************************* //
