/*--------------------------------*- C++ -*----------------------------------*\
| =========                 |                                                 |
| \\      /  F ield         | OpenFOAM: The Open Source CFD Toolbox           |
|  \\    /   O peration     | Version:  2112                                  |
|   \\  /    A nd           | Website:  www.openfoam.com                      |
|    \\/     M anipulation  |                                                 |
\*---------------------------------------------------------------------------*/
FoamFile
{
    version     2.0;
    format      ascii;
    arch        "LSB;label=32;scalar=64";
    class       surfaceScalarField;
    location    "3";
    object      phi;
}
// * * * * * * * * * * * * * * * * * * * * * * * * * * * * * * * * * * * * * //

dimensions      [0 3 -1 0 0 0 0];

oriented        oriented;

internalField   nonuniform List<scalar> 
640
(
7.6203e-09
9.48599e-12
-2.2749e-13
7.60598e-09
1.48434e-11
-4.97194e-13
7.61551e-09
-1.09277e-11
1.1593e-12
-1.49967e-11
8.3929e-13
1.58527e-07
5.37401e-11
-7.23106e-12
1.58469e-07
7.77571e-11
-6.37401e-12
1.58506e-07
-5.42292e-11
5.04849e-12
-7.94332e-11
4.34347e-12
3.05731e-06
2.35014e-10
-4.29777e-11
3.05705e-06
3.66506e-10
-3.61921e-11
3.05719e-06
-2.29162e-10
3.10085e-11
-3.71624e-10
2.42788e-11
5.70181e-05
7.10773e-10
-2.29768e-10
5.70172e-05
1.38844e-09
-1.60022e-10
5.70175e-05
-6.85587e-10
1.85212e-10
-1.42391e-09
1.23424e-10
0.00101433
1.33979e-09
-1.00391e-09
0.00101433
3.45949e-09
-5.04703e-10
0.00101433
-1.45422e-09
9.84347e-10
-3.6997e-09
5.3046e-10
0.0168042
2.65207e-09
-3.29805e-09
0.0168042
8.90284e-10
8.70285e-11
0.0168042
-2.58837e-09
3.3198e-09
-1.15818e-09
-1.25721e-10
0.24778
3.46022e-09
-8.86153e-09
0.24778
-7.36474e-09
3.5592e-09
0.24778
-3.34791e-09
8.85374e-09
7.80008e-09
-3.64017e-09
2.94276
-8.44169e-09
2.94276
9.90178e-09
2.94276
8.30334e-09
-9.86848e-09
7.63513e-09
8.34718e-12
-9.08474e-13
7.62117e-09
1.43764e-11
-9.11211e-13
7.6296e-09
-9.37471e-12
2.1147e-12
-1.31184e-11
1.15568e-12
1.58689e-07
4.41678e-11
-8.87332e-12
1.58634e-07
7.08513e-11
-7.77685e-12
1.58668e-07
-4.57053e-11
8.02213e-12
-7.24341e-11
7.23533e-12
3.05878e-06
1.81628e-10
-4.86811e-11
3.05852e-06
3.35459e-10
-4.25647e-11
3.05864e-06
-1.9349e-10
5.3739e-11
-3.5533e-10
4.23951e-11
5.70288e-05
5.2354e-10
-2.83216e-10
5.70278e-05
1.3732e-09
-2.16334e-10
5.70281e-05
-5.56981e-10
2.77838e-10
-1.43693e-09
2.06053e-10
0.00101439
8.57531e-10
-1.11139e-09
0.00101439
3.57528e-09
-5.74611e-10
0.00101439
-1.05545e-09
1.25012e-09
-3.75854e-09
7.26109e-10
0.0168044
2.26052e-09
-3.19061e-09
0.0168044
1.07042e-09
-7.02313e-10
0.0168044
-2.23962e-09
3.21523e-09
-1.46515e-09
6.53414e-10
0.24778
4.70715e-09
-2.0984e-09
0.24778
-6.2051e-09
6.17567e-09
0.247781
-4.37716e-09
1.42666e-09
6.43175e-09
-6.52318e-09
2.94276
5.42599e-09
2.94276
2.49384e-09
2.94276
-4.56384e-09
-2.90441e-09
7.65327e-09
6.03296e-12
-5.37553e-13
7.64041e-09
1.24998e-11
-5.47208e-13
7.64828e-09
-6.50251e-12
7.59868e-13
-1.15097e-11
1.056e-12
1.58899e-07
3.22431e-11
-5.7095e-12
1.58847e-07
6.09299e-11
-4.6965e-12
1.58876e-07
-3.34189e-11
6.57869e-12
-6.28311e-11
5.67061e-12
3.06064e-06
1.39388e-10
-2.87301e-11
3.06038e-06
2.99602e-10
-2.54258e-11
3.06049e-06
-1.35908e-10
4.57672e-11
-3.29625e-10
3.68188e-11
5.70422e-05
3.91466e-10
-1.78794e-10
5.70411e-05
1.31195e-09
-1.44352e-10
5.70415e-05
-3.91269e-10
2.03619e-10
-1.40097e-09
1.66174e-10
0.00101446
7.55062e-10
-5.98348e-10
0.00101446
3.88805e-09
-3.99947e-10
0.00101446
-8.59701e-10
8.15276e-10
-4.00372e-09
6.0476e-10
0.0168046
2.4742e-09
-9.30641e-10
0.0168046
2.11304e-09
-5.31879e-10
0.0168046
-2.3369e-09
9.31026e-10
-2.33006e-09
3.66661e-10
0.247781
4.17972e-09
5.59466e-09
0.247781
-6.39282e-09
6.6812e-11
0.247781
-4.05945e-09
-6.40108e-09
6.47841e-09
-5.65251e-10
2.94276
2.87033e-08
2.94276
-7.19191e-09
2.94276
-2.86534e-08
7.79944e-09
7.66579e-09
4.67869e-12
1.62646e-13
7.65433e-09
1.07952e-11
1.17531e-13
7.65987e-09
-4.78584e-12
1.23633e-14
-1.03224e-11
2.56311e-13
1.59038e-07
2.41994e-11
4.62727e-13
1.58989e-07
5.44291e-11
5.51846e-13
1.59013e-07
-2.43451e-11
1.41706e-12
-5.59948e-11
1.29115e-12
3.06185e-06
1.19836e-10
3.09379e-12
3.06159e-06
2.78427e-10
2.70713e-12
3.06169e-06
-8.49509e-11
6.42926e-12
-3.05753e-10
6.96271e-12
5.70507e-05
3.58419e-10
2.09316e-11
5.70495e-05
1.29737e-09
1.10771e-11
5.70499e-05
-3.07582e-10
1.04741e-11
-1.36383e-09
2.73569e-11
0.00101451
1.03643e-09
2.80011e-10
0.0010145
3.90236e-09
7.87132e-11
0.0010145
-1.0421e-09
-7.99101e-11
-3.87098e-09
1.01599e-10
0.0168048
4.22165e-09
1.77532e-09
0.0168048
1.07582e-09
-7.44721e-11
0.0168048
-4.02226e-09
-1.82167e-09
-1.32308e-09
2.95768e-11
0.247781
7.57738e-09
9.78577e-09
0.247781
-7.72652e-09
-3.79859e-09
0.247781
-7.72424e-09
-1.04931e-08
7.63782e-09
3.38875e-09
2.94276
2.30712e-08
2.94276
-9.03375e-09
2.94276
-2.32769e-08
9.66131e-09
7.66779e-09
4.66138e-12
8.18753e-13
7.65634e-09
1.08158e-11
7.40127e-13
7.66169e-09
-4.62862e-12
-7.11727e-13
-1.01901e-11
-6.76635e-13
1.59058e-07
2.48812e-11
6.42178e-12
1.59009e-07
5.46929e-11
5.65181e-12
1.59034e-07
-2.36908e-11
-4.59318e-12
-5.52974e-11
-3.84077e-12
3.06201e-06
1.28658e-10
3.38701e-11
3.06176e-06
2.80799e-10
2.99727e-11
3.06187e-06
-8.72017e-11
-3.67982e-11
-3.02403e-10
-2.70903e-11
5.70516e-05
4.2017e-10
2.2223e-10
5.70504e-05
1.31684e-09
1.63904e-10
5.70509e-05
-3.8011e-10
-1.85127e-10
-1.34502e-09
-1.23182e-10
0.00101451
1.58642e-09
9.95825e-10
0.00101451
3.83062e-09
5.00952e-10
0.00101451
-1.4499e-09
-9.50012e-10
-3.6615e-09
-4.60118e-10
0.0168048
5.53854e-09
3.44656e-09
0.0168048
5.84492e-10
-1.06892e-10
0.0168048
-5.22706e-09
-3.58834e-09
-5.60979e-10
1.28111e-10
0.247781
8.64118e-09
7.49225e-09
0.247781
-8.18433e-09
-4.37349e-09
0.247781
-9.00692e-09
-7.73736e-09
7.89477e-09
4.49178e-09
2.94276
1.30718e-08
2.94276
-1.73464e-08
2.94276
-1.30748e-08
1.71161e-08
7.65822e-09
5.99156e-12
9.42525e-13
7.64569e-09
1.25312e-11
7.38705e-13
7.65232e-09
-6.16331e-12
-1.18972e-12
-1.11777e-11
-1.33886e-12
1.5895e-07
3.34868e-11
9.18641e-12
1.58898e-07
6.17937e-11
8.07667e-12
1.58927e-07
-3.19528e-11
-7.81894e-12
-6.10835e-11
-7.0823e-12
3.06105e-06
1.60345e-10
5.0602e-11
3.06079e-06
3.06415e-10
4.38892e-11
3.06092e-06
-1.42213e-10
-5.351e-11
-3.20973e-10
-4.23058e-11
5.70446e-05
5.83491e-10
2.91774e-10
5.70435e-05
1.33384e-09
2.24632e-10
5.7044e-05
-5.41776e-10
-2.75674e-10
-1.3291e-09
-2.05753e-10
0.00101447
1.99476e-09
1.12562e-09
0.00101447
3.61683e-09
5.80839e-10
0.00101447
-1.76715e-09
-1.2911e-09
-3.40299e-09
-7.23702e-10
0.0168047
6.2128e-09
2.99963e-09
0.0168047
-7.80476e-10
7.63719e-10
0.0168047
-5.93968e-09
-3.09466e-09
8.12282e-10
-6.52689e-10
0.247781
9.96692e-09
3.01429e-09
0.247781
-1.10003e-08
-4.0906e-09
0.247781
-1.02308e-08
-2.86463e-09
1.07053e-08
4.67794e-09
2.94276
-9.17918e-09
2.94276
1.47965e-09
2.94276
9.82951e-09
-2.9223e-09
7.63933e-09
8.34912e-12
3.4731e-13
7.62523e-09
1.44283e-11
4.04953e-13
7.63472e-09
-8.82194e-12
-1.86638e-12
-1.27982e-11
-1.15829e-12
1.5874e-07
4.60498e-11
6.46783e-12
1.58685e-07
7.23299e-11
5.40591e-12
1.58719e-07
-4.39629e-11
-6.79889e-12
-7.01773e-11
-6.19248e-12
3.05919e-06
2.09236e-10
3.68195e-11
3.05893e-06
3.44563e-10
3.12246e-11
3.05907e-06
-2.01433e-10
-3.90021e-11
-3.45321e-10
-3.30775e-11
5.70313e-05
7.37778e-10
1.89865e-10
5.70304e-05
1.39863e-09
1.4195e-10
5.70308e-05
-6.91594e-10
-2.07363e-10
-1.36181e-09
-1.6536e-10
0.0010144
2.14714e-09
5.76889e-10
0.0010144
3.46763e-09
3.66704e-10
0.0010144
-2.02377e-09
-8.2235e-10
-3.30142e-09
-6.36146e-10
0.0168044
5.70003e-09
1.17131e-09
0.0168044
-4.65579e-10
4.07111e-10
0.0168044
-5.54248e-09
-1.05383e-09
4.57537e-10
-3.68517e-10
0.247781
8.03202e-09
-6.64359e-09
0.247781
-8.95192e-09
-1.17656e-09
0.247781
-8.15905e-09
7.60685e-09
8.96649e-09
1.21223e-09
2.94276
-2.22361e-08
2.94276
1.30584e-09
2.94276
2.22807e-08
-2.25514e-09
7.62262e-09
9.53394e-12
7.60794e-09
1.50648e-11
7.61722e-09
-1.09172e-11
-1.47599e-11
1.58548e-07
5.45618e-11
1.5849e-07
7.88627e-11
1.58527e-07
-5.34682e-11
-7.82911e-11
3.05748e-06
2.43647e-10
3.05723e-06
3.72097e-10
3.05737e-06
-2.31855e-10
-3.64881e-10
5.70192e-05
7.99133e-10
5.70184e-05
1.42066e-09
5.70187e-05
-7.58117e-10
-1.39121e-09
0.00101434
1.76626e-09
0.00101434
3.26453e-09
0.00101434
-1.83112e-09
-3.30598e-09
0.0168042
4.27276e-09
0.0168042
-8.98235e-10
0.0168042
-4.09358e-09
6.35305e-10
0.24778
6.93104e-09
0.24778
-9.53976e-09
0.24778
-6.62307e-09
9.48385e-09
2.94276
2.94276
2.94276
)
;

boundaryField
{
    movingWall
    {
        type            calculated;
        value           uniform 0;
    }
    CPLReceiveMD
    {
        type            calculated;
        value           uniform 0;
    }
    streamwiseIn
    {
        type            cyclic;
        value           nonuniform List<scalar> 0();
    }
    streamwiseOut
    {
        type            cyclic;
        value           nonuniform List<scalar> 0();
    }
    front
    {
        type            cyclic;
        value           nonuniform List<scalar> 
32
(
-5.39038e-13
-6.37537e-13
-4.12806e-12
-3.33665e-11
-2.5696e-10
-1.92684e-09
-8.33436e-09
-3.01139e-08
2.33829e-14
-6.97877e-13
-3.65075e-12
-2.06929e-11
-6.00491e-11
-5.47768e-12
5.43274e-09
1.62873e-08
-2.2469e-13
-1.66282e-12
-6.50833e-12
-9.05135e-12
1.12474e-10
2.10237e-09
9.30479e-09
2.88681e-08
-6.66057e-14
-1.36978e-12
-6.91118e-12
-2.91544e-11
-1.33606e-10
-3.65254e-11
-5.74007e-09
-1.56942e-08
)
;
    }
    back
    {
        type            cyclic;
        value           nonuniform List<scalar> 
32
(
5.39038e-13
6.37537e-13
4.12806e-12
3.33665e-11
2.5696e-10
1.92684e-09
8.33436e-09
3.01139e-08
-2.33829e-14
6.97877e-13
3.65075e-12
2.06929e-11
6.00491e-11
5.47768e-12
-5.43274e-09
-1.62873e-08
2.2469e-13
1.66282e-12
6.50833e-12
9.05135e-12
-1.12474e-10
-2.10237e-09
-9.30479e-09
-2.88681e-08
6.66057e-14
1.36978e-12
6.91118e-12
2.91544e-11
1.33606e-10
3.65254e-11
5.74007e-09
1.56942e-08
)
;
    }
    procBoundary0to1
    {
        type            processor;
        value           nonuniform List<scalar> 
64
(
7.62956e-09
1.58565e-07
3.05745e-06
5.70184e-05
0.00101433
0.0168042
0.24778
2.94276
7.6424e-09
1.58724e-07
3.05891e-06
5.70291e-05
0.00101439
0.0168044
0.24778
2.94276
7.65989e-09
1.58929e-07
3.06077e-06
5.70426e-05
0.00101446
0.0168046
0.247781
2.94276
7.67099e-09
1.59063e-07
3.06197e-06
5.70511e-05
0.00101451
0.0168048
0.247781
2.94276
7.67281e-09
1.59085e-07
3.06215e-06
5.70521e-05
0.00101451
0.0168048
0.247781
2.94276
7.66415e-09
1.5898e-07
3.06119e-06
5.70451e-05
0.00101447
0.0168047
0.247781
2.94276
7.64734e-09
1.58776e-07
3.05934e-06
5.70318e-05
0.0010144
0.0168044
0.247781
2.94276
7.63095e-09
1.58586e-07
3.05763e-06
5.70196e-05
0.00101434
0.0168042
0.24778
2.94276
)
;
    }
    procBoundary0to1throughstreamwiseIn
    {
        type            processorCyclic;
        value           nonuniform List<scalar> 
64
(
-7.6301e-09
-1.58564e-07
-3.05745e-06
-5.70184e-05
-0.00101433
-0.0168042
-0.24778
-2.94276
-7.64278e-09
-1.58723e-07
-3.05891e-06
-5.70291e-05
-0.00101439
-0.0168044
-0.24778
-2.94276
-7.65967e-09
-1.58928e-07
-3.06077e-06
-5.70426e-05
-0.00101446
-0.0168046
-0.247781
-2.94276
-7.67117e-09
-1.59063e-07
-3.06197e-06
-5.70511e-05
-0.00101451
-0.0168048
-0.247781
-2.94276
-7.67312e-09
-1.59085e-07
-3.06215e-06
-5.70521e-05
-0.00101451
-0.0168048
-0.247781
-2.94276
-7.66436e-09
-1.5898e-07
-3.06119e-06
-5.70451e-05
-0.00101447
-0.0168047
-0.247781
-2.94276
-7.6471e-09
-1.58775e-07
-3.05934e-06
-5.70318e-05
-0.0010144
-0.0168044
-0.247781
-2.94276
-7.63127e-09
-1.58585e-07
-3.05763e-06
-5.70196e-05
-0.00101434
-0.0168042
-0.24778
-2.94276
)
;
    }
}


// ************************************************************************* //
