/*--------------------------------*- C++ -*----------------------------------*\
| =========                 |                                                 |
| \\      /  F ield         | OpenFOAM: The Open Source CFD Toolbox           |
|  \\    /   O peration     | Version:  2112                                  |
|   \\  /    A nd           | Website:  www.openfoam.com                      |
|    \\/     M anipulation  |                                                 |
\*---------------------------------------------------------------------------*/
FoamFile
{
    version     2.0;
    format      ascii;
    arch        "LSB;label=32;scalar=64";
    class       volVectorField;
    location    "3";
    object      U;
}
// * * * * * * * * * * * * * * * * * * * * * * * * * * * * * * * * * * * * * //

dimensions      [0 1 -1 0 0 0 0];

internalField   nonuniform List<vector> 
256
(
(6.41063e-10 -3.60126e-13 -5.34769e-14)
(6.39574e-10 -1.50114e-13 -3.86759e-14)
(6.39272e-10 -1.59144e-12 3.12862e-14)
(6.40594e-10 -1.89423e-12 2.23045e-14)
(1.33231e-08 -6.4586e-13 -1.63222e-13)
(1.33173e-08 1.17045e-12 -1.28061e-13)
(1.33155e-08 -8.99099e-12 3.27532e-13)
(1.33213e-08 -1.09095e-11 3.18125e-13)
(2.569e-07 1.13109e-11 -1.3878e-12)
(2.56878e-07 2.15348e-11 -1.04677e-12)
(2.56868e-07 -3.1158e-11 2.01522e-12)
(2.56891e-07 -4.17099e-11 1.75219e-12)
(4.79095e-06 9.22025e-11 -1.13307e-11)
(4.7909e-06 1.45689e-10 -7.42589e-12)
(4.79085e-06 -8.07057e-11 9.87129e-12)
(4.7909e-06 -1.36762e-10 6.49952e-12)
(8.52287e-05 2.94653e-10 -6.41663e-11)
(8.52288e-05 5.49708e-10 -2.93084e-11)
(8.52287e-05 -1.76817e-10 4.92759e-11)
(8.52287e-05 -4.46397e-10 1.8187e-11)
(0.00141196 3.44021e-10 -2.77587e-10)
(0.00141196 1.17881e-09 1.03654e-11)
(0.00141196 -4.52274e-10 2.45893e-10)
(0.00141196 -1.32002e-09 -2.9683e-11)
(0.0208196 7.28307e-10 -8.43415e-10)
(0.0208196 -1.00152e-09 3.34187e-10)
(0.0208196 -7.92032e-10 8.12869e-10)
(0.0208196 1.02821e-09 -3.83133e-10)
(0.247264 8.20001e-10 -1.73369e-09)
(0.247264 -1.79299e-09 1.43532e-09)
(0.247264 -7.03093e-10 1.50367e-09)
(0.247264 2.00775e-09 -1.42478e-09)
(6.42093e-10 -3.65885e-13 -1.7253e-13)
(6.40961e-10 -1.06569e-13 -2.87948e-13)
(6.40508e-10 -1.46416e-12 3.70038e-14)
(6.416e-10 -1.70272e-12 -1.26402e-13)
(1.33366e-08 -1.05118e-12 -5.30842e-13)
(1.33311e-08 9.11929e-13 -4.56434e-13)
(1.33293e-08 -8.17408e-12 7.71628e-13)
(1.33348e-08 -1.0133e-11 6.77252e-13)
(2.57024e-07 7.69622e-12 -3.20247e-12)
(2.57001e-07 1.93025e-11 -2.66041e-12)
(2.5699e-07 -2.74596e-11 5.23452e-12)
(2.57013e-07 -3.89573e-11 4.36127e-12)
(4.79185e-06 7.23696e-11 -2.24108e-11)
(4.79179e-06 1.36514e-10 -1.60756e-11)
(4.79174e-06 -6.47771e-11 2.45272e-11)
(4.7918e-06 -1.27417e-10 1.85789e-11)
(8.52337e-05 2.30173e-10 -1.05831e-10)
(8.52336e-05 5.67272e-10 -5.48577e-11)
(8.52335e-05 -1.30961e-10 1.04741e-10)
(8.52336e-05 -4.63098e-10 6.07939e-11)
(0.00141198 1.69816e-10 -3.34244e-10)
(0.00141198 1.13128e-09 -2.2389e-11)
(0.00141198 -3.07483e-10 2.88617e-10)
(0.00141198 -1.26362e-09 9.62824e-12)
(0.0208197 8.66877e-10 -6.04125e-10)
(0.0208197 -8.16701e-10 3.47248e-10)
(0.0208197 -8.93594e-10 4.99079e-10)
(0.0208197 7.7971e-10 -3.64848e-10)
(0.247264 1.02121e-09 -1.36828e-10)
(0.247264 -1.56678e-09 5.34637e-10)
(0.247264 -8.57704e-10 2.07322e-10)
(0.247264 1.714e-09 -7.01502e-10)
(6.43552e-10 -4.59971e-13 -1.0863e-13)
(6.42455e-10 -1.67912e-13 -1.10175e-13)
(6.42107e-10 -1.24675e-12 -3.01663e-14)
(6.43197e-10 -1.54783e-12 5.73328e-14)
(1.33539e-08 -1.7479e-12 -6.44827e-13)
(1.33489e-08 3.19563e-13 -5.36498e-13)
(1.3347e-08 -7.03284e-12 7.28143e-13)
(1.3352e-08 -9.22433e-12 6.20814e-13)
(2.5718e-07 3.20811e-12 -3.42188e-12)
(2.57157e-07 1.5751e-11 -2.9562e-12)
(2.57146e-07 -2.23585e-11 5.09043e-12)
(2.57169e-07 -3.50789e-11 4.13979e-12)
(4.79299e-06 5.41937e-11 -2.14806e-11)
(4.7929e-06 1.26363e-10 -1.69799e-11)
(4.79285e-06 -4.38508e-11 2.39548e-11)
(4.79294e-06 -1.15865e-10 1.87071e-11)
(8.52398e-05 1.79247e-10 -8.22357e-11)
(8.52397e-05 5.47547e-10 -4.88835e-11)
(8.52396e-05 -7.90733e-11 9.93021e-11)
(8.52398e-05 -4.49869e-10 6.27281e-11)
(0.001412 1.636e-10 -2.00482e-10)
(0.001412 1.33205e-09 -7.79345e-11)
(0.001412 -3.09913e-10 2.04775e-10)
(0.001412 -1.48148e-09 6.04298e-11)
(0.0208197 8.50623e-10 1.9993e-10)
(0.0208197 -7.29678e-10 3.7804e-10)
(0.0208197 -8.70294e-10 -2.35727e-10)
(0.0208197 6.99403e-10 -4.29829e-10)
(0.247264 1.02269e-09 1.44853e-09)
(0.247264 -1.62577e-09 -2.39419e-10)
(0.247264 -8.4331e-10 -1.37129e-09)
(0.247264 1.79379e-09 3.39959e-10)
(6.44551e-10 -5.42176e-13 -2.20731e-14)
(6.43548e-10 -2.36364e-13 -5.07331e-15)
(6.43187e-10 -1.14266e-12 7.42439e-14)
(6.44168e-10 -1.46382e-12 7.6231e-14)
(1.33654e-08 -2.26168e-12 -2.59941e-13)
(1.33607e-08 -1.21783e-13 -2.07504e-13)
(1.33587e-08 -6.25654e-12 3.65403e-13)
(1.33634e-08 -8.60621e-12 3.128e-13)
(2.57282e-07 -1.9981e-14 -1.33968e-12)
(2.57258e-07 1.32131e-11 -1.1625e-12)
(2.57247e-07 -1.88566e-11 2.3944e-12)
(2.57271e-07 -3.22581e-11 1.99508e-12)
(4.7937e-06 4.31831e-11 -8.22871e-12)
(4.7936e-06 1.19504e-10 -6.82059e-12)
(4.79355e-06 -2.98861e-11 1.01322e-11)
(4.79365e-06 -1.05716e-10 8.97956e-12)
(8.52436e-05 1.64086e-10 -1.89629e-11)
(8.52433e-05 5.44555e-10 -1.65148e-11)
(8.52432e-05 -6.42017e-11 3.58968e-11)
(8.52435e-05 -4.47505e-10 3.33008e-11)
(0.00141202 2.82016e-10 3.85413e-11)
(0.00141202 1.28218e-09 -7.72615e-12)
(0.00141202 -4.39072e-10 -3.76286e-11)
(0.00141202 -1.43862e-09 6.15575e-12)
(0.0208197 1.61883e-09 7.9665e-10)
(0.0208197 -9.9752e-10 -2.99853e-10)
(0.0208197 -1.59887e-09 -8.02441e-10)
(0.0208197 1.02617e-09 2.95927e-10)
(0.247264 1.71696e-09 2.721e-09)
(0.247264 -1.82069e-09 -4.79263e-10)
(0.247264 -1.4867e-09 -2.54956e-09)
(0.247264 2.0538e-09 6.86541e-10)
(6.44711e-10 -5.40008e-13 4.17647e-14)
(6.43713e-10 -2.32507e-13 3.66337e-14)
(6.4335e-10 -1.12555e-12 -3.41179e-14)
(6.44325e-10 -1.44907e-12 -2.25834e-14)
(1.33672e-08 -2.2284e-12 2.95364e-13)
(1.33625e-08 -1.00375e-13 2.65836e-13)
(1.33605e-08 -6.1662e-12 -1.66803e-13)
(1.33652e-08 -8.50777e-12 -1.36939e-13)
(2.57296e-07 2.57081e-13 1.66842e-12)
(2.57272e-07 1.3302e-11 1.43829e-12)
(2.57261e-07 -1.8741e-11 -1.51251e-12)
(2.57285e-07 -3.18687e-11 -1.07327e-12)
(4.79379e-06 4.76701e-11 1.12806e-11)
(4.79368e-06 1.20671e-10 8.04244e-12)
(4.79363e-06 -3.14458e-11 -8.59604e-12)
(4.79374e-06 -1.04264e-10 -5.11581e-12)
(8.52439e-05 1.9677e-10 6.07534e-11)
(8.52436e-05 5.46856e-10 2.75215e-11)
(8.52435e-05 -9.69813e-11 -5.02143e-11)
(8.52438e-05 -4.50578e-10 -1.92022e-11)
(0.00141202 4.72946e-10 2.62156e-10)
(0.00141202 1.21211e-09 -2.44259e-11)
(0.00141202 -6.27748e-10 -2.57885e-10)
(0.00141202 -1.36929e-09 2.09121e-11)
(0.0208197 1.97754e-09 8.61436e-10)
(0.0208197 -1.13245e-09 -3.39158e-10)
(0.0208197 -1.90361e-09 -7.99521e-10)
(0.0208197 1.21164e-09 3.77359e-10)
(0.247264 2.01491e-09 1.7769e-09)
(0.247264 -1.8787e-09 -1.38394e-09)
(0.247264 -1.73194e-09 -1.59236e-09)
(0.247264 2.165e-09 1.48574e-09)
(6.4395e-10 -4.55132e-13 1.00877e-13)
(6.42847e-10 -1.57555e-13 6.13333e-14)
(6.42502e-10 -1.19756e-12 -1.21865e-13)
(6.43583e-10 -1.51252e-12 -9.84001e-14)
(1.33583e-08 -1.66185e-12 6.39508e-13)
(1.33532e-08 3.95248e-13 5.53542e-13)
(1.33513e-08 -6.80379e-12 -6.57717e-13)
(1.33564e-08 -8.99562e-12 -5.53869e-13)
(2.57216e-07 4.0485e-12 3.63139e-12)
(2.57191e-07 1.6093e-11 3.16487e-12)
(2.5718e-07 -2.19786e-11 -4.71727e-12)
(2.57205e-07 -3.41021e-11 -3.74245e-12)
(4.79319e-06 6.50677e-11 2.39671e-11)
(4.7931e-06 1.29156e-10 1.838e-11)
(4.79306e-06 -4.7926e-11 -2.30887e-11)
(4.79315e-06 -1.12423e-10 -1.6887e-11)
(8.52406e-05 2.57064e-10 1.04815e-10)
(8.52404e-05 5.32149e-10 5.44243e-11)
(8.52404e-05 -1.56613e-10 -1.08393e-10)
(8.52406e-05 -4.37506e-10 -5.60875e-11)
(0.001412 5.80047e-10 3.21253e-10)
(0.00141201 1.13239e-09 3.36057e-11)
(0.00141201 -7.1831e-10 -3.10357e-10)
(0.00141201 -1.27798e-09 -1.05017e-11)
(0.0208197 2.26974e-09 5.80785e-10)
(0.0208197 -1.70524e-09 -3.01133e-10)
(0.0208197 -2.16228e-09 -5.34007e-10)
(0.0208197 1.7958e-09 4.1707e-10)
(0.247264 2.23631e-09 1.72106e-10)
(0.247264 -2.36028e-09 -5.28129e-10)
(0.247264 -1.93848e-09 -1.74598e-10)
(0.247264 2.64671e-09 5.70629e-10)
(6.42435e-10 -3.60874e-13 1.20344e-13)
(6.41198e-10 -7.1228e-14 1.12218e-13)
(6.40898e-10 -1.34788e-12 3.30004e-14)
(6.42131e-10 -1.64067e-12 -5.70522e-14)
(1.33409e-08 -9.33472e-13 5.12703e-13)
(1.33354e-08 1.03655e-12 3.98737e-13)
(1.33335e-08 -7.8756e-12 -8.88855e-13)
(1.33391e-08 -9.86465e-12 -8.01982e-13)
(2.57059e-07 8.89629e-12 3.14134e-12)
(2.57035e-07 1.99037e-11 2.56475e-12)
(2.57025e-07 -2.70492e-11 -5.59308e-12)
(2.5705e-07 -3.79183e-11 -4.81862e-12)
(4.79207e-06 8.51439e-11 2.15307e-11)
(4.79199e-06 1.3965e-10 1.63634e-11)
(4.79195e-06 -6.98446e-11 -2.523e-11)
(4.79203e-06 -1.23647e-10 -2.00907e-11)
(8.52346e-05 3.06781e-10 8.56476e-11)
(8.52346e-05 5.52318e-10 5.06699e-11)
(8.52345e-05 -2.03296e-10 -9.83644e-11)
(8.52346e-05 -4.4805e-10 -6.17134e-11)
(0.00141198 6.45933e-10 2.15909e-10)
(0.00141198 1.07601e-09 9.19916e-11)
(0.00141199 -7.82432e-10 -1.92787e-10)
(0.00141198 -1.18997e-09 -5.1663e-11)
(0.0208197 1.87179e-09 -2.1796e-10)
(0.0208197 -1.40416e-09 -3.73076e-10)
(0.0208197 -1.80771e-09 2.22371e-10)
(0.0208197 1.48924e-09 4.35596e-10)
(0.247264 1.82436e-09 -1.49174e-09)
(0.247264 -2.06066e-09 1.88036e-10)
(0.247264 -1.57122e-09 1.45998e-09)
(0.247264 2.31753e-09 -4.00917e-10)
(6.41082e-10 -3.41794e-13 9.37274e-14)
(6.39859e-10 -8.73702e-14 2.31689e-13)
(6.39431e-10 -1.58817e-12 1.06194e-14)
(6.40617e-10 -1.82737e-12 1.48574e-13)
(1.33248e-08 -5.62402e-13 1.5129e-13)
(1.3319e-08 1.28156e-12 1.10411e-13)
(1.33173e-08 -8.9097e-12 -4.79298e-13)
(1.33231e-08 -1.0776e-11 -4.36164e-13)
(2.56916e-07 1.1832e-11 9.10841e-13)
(2.56892e-07 2.2005e-11 6.58106e-13)
(2.56883e-07 -3.09946e-11 -2.91158e-12)
(2.56906e-07 -4.12468e-11 -2.61383e-12)
(4.79104e-06 9.56219e-11 6.67258e-12)
(4.79099e-06 1.46973e-10 4.51623e-12)
(4.79095e-06 -8.2284e-11 -1.15705e-11)
(4.791e-06 -1.33497e-10 -1.06714e-11)
(8.52292e-05 3.28858e-10 1.99786e-11)
(8.52292e-05 5.60289e-10 1.69474e-11)
(8.52292e-05 -2.18476e-10 -3.22453e-11)
(8.52291e-05 -4.49332e-10 -3.80081e-11)
(0.00141197 4.60405e-10 -2.55539e-11)
(0.00141197 9.82716e-10 -3.49448e-12)
(0.00141197 -5.92749e-10 5.93655e-11)
(0.00141197 -1.10144e-09 -5.28665e-12)
(0.0208196 1.48956e-09 -7.73318e-10)
(0.0208196 -1.55294e-09 2.53731e-10)
(0.0208196 -1.43007e-09 8.37362e-10)
(0.0208196 1.52239e-09 -3.48156e-10)
(0.247264 1.52282e-09 -2.75628e-09)
(0.247264 -2.1344e-09 4.72754e-10)
(0.247264 -1.28087e-09 2.51683e-09)
(0.247264 2.28677e-09 -5.55669e-10)
)
;

boundaryField
{
    movingWall
    {
        type            fixedValue;
        value           uniform (1 0 0);
    }
    CPLReceiveMD
    {
        type            fixedValue;
        value           uniform (0 0 0);
    }
    streamwiseIn
    {
        type            cyclic;
    }
    streamwiseOut
    {
        type            cyclic;
    }
    front
    {
        type            cyclic;
    }
    back
    {
        type            cyclic;
    }
    procBoundary0to1
    {
        type            processor;
        value           nonuniform List<vector> 
64
(
(6.40733e-10 -3.56803e-13 -5.19016e-14)
(1.33231e-08 -6.43074e-13 -1.63616e-13)
(2.569e-07 1.13111e-11 -1.38784e-12)
(4.79095e-06 9.22028e-11 -1.13307e-11)
(8.52287e-05 2.94653e-10 -6.41663e-11)
(0.00141196 3.44021e-10 -2.77587e-10)
(0.0208196 7.28307e-10 -8.43415e-10)
(0.247264 8.20001e-10 -1.73369e-09)
(6.42017e-10 -3.63432e-13 -1.69653e-13)
(1.33366e-08 -1.04909e-12 -5.30306e-13)
(2.57024e-07 7.69622e-12 -3.20197e-12)
(4.79185e-06 7.23698e-11 -2.24107e-11)
(8.52337e-05 2.30173e-10 -1.05831e-10)
(0.00141198 1.69815e-10 -3.34244e-10)
(0.0208197 8.66877e-10 -6.04125e-10)
(0.247264 1.02121e-09 -1.36828e-10)
(6.43542e-10 -4.58524e-13 -1.06951e-13)
(1.3354e-08 -1.74669e-12 -6.44881e-13)
(2.5718e-07 3.20809e-12 -3.4216e-12)
(4.79299e-06 5.41939e-11 -2.14805e-11)
(8.52398e-05 1.79247e-10 -8.22356e-11)
(0.001412 1.636e-10 -2.00482e-10)
(0.0208197 8.50623e-10 1.9993e-10)
(0.247264 1.02269e-09 1.44853e-09)
(6.44511e-10 -5.40832e-13 -2.23241e-14)
(1.33654e-08 -2.26046e-12 -2.60048e-13)
(2.57282e-07 -1.99439e-14 -1.33963e-12)
(4.7937e-06 4.31832e-11 -8.22869e-12)
(8.52436e-05 1.64086e-10 -1.89629e-11)
(0.00141202 2.82015e-10 3.85413e-11)
(0.0208197 1.61883e-09 7.9665e-10)
(0.247264 1.71696e-09 2.721e-09)
(6.44666e-10 -5.38523e-13 4.10896e-14)
(1.33672e-08 -2.22708e-12 2.95504e-13)
(2.57296e-07 2.57101e-13 1.6683e-12)
(4.79379e-06 4.76702e-11 1.12806e-11)
(8.52439e-05 1.9677e-10 6.07534e-11)
(0.00141202 4.72946e-10 2.62156e-10)
(0.0208197 1.97754e-09 8.61436e-10)
(0.247264 2.01491e-09 1.7769e-09)
(6.43909e-10 -4.53177e-13 9.95323e-14)
(1.33583e-08 -1.66019e-12 6.39788e-13)
(2.57216e-07 4.04848e-12 3.63117e-12)
(4.79319e-06 6.50678e-11 2.3967e-11)
(8.52406e-05 2.57064e-10 1.04814e-10)
(0.001412 5.80046e-10 3.21253e-10)
(0.0208197 2.26974e-09 5.80785e-10)
(0.247264 2.23631e-09 1.72106e-10)
(6.42431e-10 -3.58214e-13 1.17765e-13)
(1.33409e-08 -9.31305e-13 5.1301e-13)
(2.57059e-07 8.8962e-12 3.1412e-12)
(4.79207e-06 8.51441e-11 2.15307e-11)
(8.52346e-05 3.06781e-10 8.56476e-11)
(0.00141198 6.45933e-10 2.15909e-10)
(0.0208197 1.87179e-09 -2.1796e-10)
(0.247264 1.82436e-09 -1.49174e-09)
(6.41015e-10 -3.38099e-13 9.24457e-14)
(1.33249e-08 -5.5934e-13 1.50582e-13)
(2.56916e-07 1.18319e-11 9.10503e-13)
(4.79104e-06 9.56221e-11 6.67246e-12)
(8.52292e-05 3.28858e-10 1.99786e-11)
(0.00141197 4.60405e-10 -2.55539e-11)
(0.0208196 1.48956e-09 -7.73318e-10)
(0.247264 1.52282e-09 -2.75628e-09)
)
;
    }
    procBoundary0to1throughstreamwiseIn
    {
        type            processorCyclic;
        value           nonuniform List<vector> 
64
(
(6.40671e-10 -1.80778e-12 1.63421e-14)
(1.33213e-08 -1.08358e-11 3.16719e-13)
(2.56891e-07 -4.17148e-11 1.75143e-12)
(4.7909e-06 -1.36759e-10 6.49929e-12)
(8.52287e-05 -4.46396e-10 1.81869e-11)
(0.00141196 -1.32002e-09 -2.96831e-11)
(0.0208196 1.02821e-09 -3.83133e-10)
(0.247264 2.00775e-09 -1.42478e-09)
(6.41788e-10 -1.67084e-12 3.10709e-14)
(1.33348e-08 -1.01125e-11 6.76494e-13)
(2.57013e-07 -3.89646e-11 4.36682e-12)
(4.7918e-06 -1.27415e-10 1.858e-11)
(8.52336e-05 -4.63097e-10 6.07941e-11)
(0.00141198 -1.26362e-09 9.62827e-12)
(0.0208197 7.7971e-10 -3.64848e-10)
(0.247264 1.714e-09 -7.01502e-10)
(6.43237e-10 -1.53682e-12 7.45885e-14)
(1.3352e-08 -9.22e-12 6.07335e-13)
(2.57169e-07 -3.50835e-11 4.14502e-12)
(4.79294e-06 -1.15863e-10 1.87084e-11)
(8.52398e-05 -4.49868e-10 6.27283e-11)
(0.001412 -1.48148e-09 6.04299e-11)
(0.0208197 6.99403e-10 -4.29829e-10)
(0.247264 1.79379e-09 3.3996e-10)
(6.44209e-10 -1.45246e-12 5.9137e-14)
(1.33634e-08 -8.59787e-12 3.04157e-13)
(2.57271e-07 -3.22601e-11 1.99753e-12)
(4.79365e-06 -1.05715e-10 8.98028e-12)
(8.52435e-05 -4.47504e-10 3.33009e-11)
(0.00141202 -1.43862e-09 6.15579e-12)
(0.0208197 1.02617e-09 2.95927e-10)
(0.247264 2.0538e-09 6.86541e-10)
(6.44369e-10 -1.43872e-12 -2.22982e-14)
(1.33652e-08 -8.49924e-12 -1.37293e-13)
(2.57285e-07 -3.18698e-11 -1.07308e-12)
(4.79374e-06 -1.04263e-10 -5.11574e-12)
(8.52438e-05 -4.50578e-10 -1.92022e-11)
(0.00141202 -1.36929e-09 2.09121e-11)
(0.0208197 1.21164e-09 3.77359e-10)
(0.247264 2.165e-09 1.48574e-09)
(6.43625e-10 -1.50189e-12 -7.72427e-14)
(1.33564e-08 -8.98771e-12 -5.44924e-13)
(2.57205e-07 -3.41039e-11 -3.74442e-12)
(4.79315e-06 -1.12423e-10 -1.68876e-11)
(8.52406e-05 -4.37505e-10 -5.60876e-11)
(0.00141201 -1.27798e-09 -1.05018e-11)
(0.0208197 1.7958e-09 4.17069e-10)
(0.247264 2.64671e-09 5.70629e-10)
(6.42169e-10 -1.63213e-12 -6.86305e-14)
(1.33391e-08 -9.8625e-12 -7.86743e-13)
(2.5705e-07 -3.79229e-11 -4.82328e-12)
(4.79203e-06 -1.23646e-10 -2.00918e-11)
(8.52346e-05 -4.4805e-10 -6.17136e-11)
(0.00141198 -1.18997e-09 -5.1663e-11)
(0.0208197 1.48924e-09 4.35596e-10)
(0.247264 2.31753e-09 -4.00917e-10)
(6.40802e-10 -1.79865e-12 -1.29626e-14)
(1.33231e-08 -1.07585e-11 -4.35707e-13)
(2.56906e-07 -4.12545e-11 -2.61985e-12)
(4.791e-06 -1.33495e-10 -1.06727e-11)
(8.52291e-05 -4.49331e-10 -3.80083e-11)
(0.00141197 -1.10144e-09 -5.28668e-12)
(0.0208196 1.52239e-09 -3.48156e-10)
(0.247264 2.28677e-09 -5.55669e-10)
)
;
    }
}


// ************************************************************************* //
